                  Welcome to Q-Chem
     A Quantum Leap Into The Future Of Chemistry


 Q-Chem 4.2, Q-Chem, Inc., Pleasanton, CA (2014).

 Y. Shao,  Z. Gan,  E. Epifanovsky,  A. T. B. Gilbert,  M. Wormit,  
 J. Kussmann,  A. W. Lange,  A. Behn,  J. Deng,  X. Feng,  D. Ghosh,  
 M. Goldey,  P. R. Horn,  L. D. Jacobson,  I. Kaliman,  R. Z. Khaliullin,  
 T. Kus,  A. Landau,  J. Liu,  E. I. Proynov,  Y. M. Rhee,  R. M. Richard,  
 M. A. Rohrdanz,  R. P. Steele,  E. J. Sundstrom,  H. L. Woodcock III,  
 P. M. Zimmerman,  D. Zuev,  B. Albrecht,  E. Alguire,  B. Austin,  
 G. J. O. Beran,  Y. A. Bernard,  E. Berquist,  K. Brandhorst,  
 K. B. Bravaya,  S. T. Brown,  D. Casanova,  C.-M. Chang,  Y. Chen,  
 S. H. Chien,  K. D. Closser,  D. L. Crittenden,  M. Diedenhofen,  
 R. A. DiStasio Jr.,  H. Do,  A. D. Dutoi,  R. G. Edgar,  S. Fatehi,  
 L. Fusti-Molnar,  A. Ghysels,  A. Golubeva-Zadorozhnaya,  J. Gomes,  
 M. W. D. Hanson-Heine,  P. H. P. Harbach,  A. W. Hauser,  E. G. Hohenstein,  
 Z. C. Holden,  T.-C. Jagau,  H. Ji,  B. Kaduk,  K. Khistyaev,  Jaehoon Kim,  
 Jihan Kim,  R. A. King,  P. Klunzinger,  D. Kosenkov,  T. Kowalczyk,  
 C. M. Krauter,  K. U. Lao,  A. Laurent,  K. V. Lawler,  S. V. Levchenko,  
 C. Y. Lin,  F. Liu,  E. Livshits,  R. C. Lochan,  A. Luenser,  P. Manohar,  
 S. F. Manzer,  S.-P. Mao,  N. Mardirossian,  A. V. Marenich,  S. A. Maurer,  
 N. J. Mayhall,  C. M. Oana,  R. Olivares-Amaya,  D. P. O'Neill,  
 J. A. Parkhill,  T. M. Perrine,  R. Peverati,  P. A. Pieniazek,  A. Prociuk,  
 D. R. Rehn,  E. Rosta,  N. J. Russ,  N. Sergueev,  S. M. Sharada,  
 S. Sharma,  D. W. Small,  A. Sodt,  T. Stein,  D. Stuck,  Y.-C. Su,  
 A. J. W. Thom,  T. Tsuchimochi,  L. Vogt,  O. Vydrov,  T. Wang,  
 M. A. Watson,  J. Wenzel,  A. White,  C. F. Williams,  V. Vanovschi,  
 S. Yeganeh,  S. R. Yost,  Z.-Q. You,  I. Y. Zhang,  X. Zhang,  Y. Zhao,  
 B. R. Brooks,  G. K. L. Chan,  D. M. Chipman,  C. J. Cramer,  
 W. A. Goddard III,  M. S. Gordon,  W. J. Hehre,  A. Klamt,  
 H. F. Schaefer III,  M. W. Schmidt,  C. D. Sherrill,  D. G. Truhlar,  
 A. Warshel,  X. Xu,  A. Aspuru-Guzik,  R. Baer,  A. T. Bell,  N. A. Besley,  
 J.-D. Chai,  A. Dreuw,  B. D. Dunietz,  T. R. Furlani,  S. R. Gwaltney,  
 C.-P. Hsu,  Y. Jung,  J. Kong,  D. S. Lambrecht,  W. Liang,  C. Ochsenfeld,  
 V. A. Rassolov,  L. V. Slipchenko,  J. E. Subotnik,  T. Van Voorhis,  
 J. M. Herbert,  A. I. Krylov,  P. M. W. Gill,  M. Head-Gordon

 Contributors to earlier versions of Q-Chem not listed above: 
 R. D. Adamson,  J. Baker,  E. F. C. Byrd,  A. K. Chakraborty,  C.-L. Cheng,  
 H. Dachsel,  R. J. Doerksen,  G. Hawkins,  A. Heyden,  S. Hirata,  
 G. Kedziora,  F. J. Keil,  C. Kelley,  P. P. Korambath,  W. Kurlancheek,  
 A. M. Lee,  M. S. Lee,  D. Liotard,  I. Lotan,  P. E. Maslen,  N. Nair,  
 D. Neuhauser,  R. Olson,  B. Peters,  J. Ritchie,  N. E. Schultz,  
 N. Shenvi,  A. C. Simmonett,  K. S. Thanthiriwatte,  Q. Wu,  W. Zhang

 Q-Chem 4.2.0 for Intel X86 EM64T Linux

 Parts of Q-Chem use Armadillo 4.100.2 (Dirt Cruiser).
 http://arma.sourceforge.net/

 Q-Chem begins on Mon Jun  2 10:04:06 2014  

Host: 
0

     Scratch files written to /tmp/ben/qchem/qchem29885//
 May2714 |home|ben|opt|apps|qchem|bja_2|libmdc|qstr_info.C -1
 Using version located at /home/ben/opt/apps/qchem/bja_2/bin/qchem


Total Memory Limit in MB = 2000
Mega-Array Size in MB = 62
Finally everything over in PARseQInput
Attempting to add embedman to Seq[NQinks++]

--------------------------------------------------------------
User input:
--------------------------------------------------------------
$molecule
0 1
--
0 1
O       -1.06894        2.58476       -0.04887
H       -0.16971        2.43518        0.33714
H       -1.12297        1.94757       -0.80463
---
0 1
O        2.40989        2.65835       -0.41025
H        3.37713        2.77773       -0.23492
H        2.05593        3.57951       -0.48982
$end

$rem
BASIS           6-31G*
EXCHANGE        PBE
CORRELATION     PBE
EMBEDMAN        1
EMBED_THEORY    1
SCF_ALGORITHM   DIIS
incfock         0
CCMAN2          true
PURCAR          222
MAXSCF          100
symmetry        false
sym_ignore      true
cc_symmetry     false
$end

--------------------------------------------------------------
 ----------------------------------------------------------------
             Standard Nuclear Orientation (Angstroms)
    I     Atom           X                Y                Z
 ----------------------------------------------------------------
    1      O      -1.0689400000     2.5847600000    -0.0488700000
    2      H      -0.1697100000     2.4351800000     0.3371400000
    3      H      -1.1229700000     1.9475700000    -0.8046300000
    4      O       2.4098900000     2.6583500000    -0.4102500000
    5      H       3.3771300000     2.7777300000    -0.2349200000
    6      H       2.0559300000     3.5795100000    -0.4898200000
 ----------------------------------------------------------------
 Nuclear Repulsion Energy =    33.0389764839 hartrees
 There are       10 alpha and       10 beta electrons

 Q-Chem warning in module /home/ben/opt/apps/qchem/bja_2/forms1/BasisType.C, line 1231:

 You are not using the predefined 5D/6D in this basis set.

 Requested basis set is 6-31G(d)
 There are 16 shells and 38 basis functions

Total QAlloc Memory Limit   2000 MB
Mega-Array Size        61 MB
MEM_STATIC part        62 MB

finished with qalloc call
 ----------------------------------------------------------------------------------
      ___          ___                       ___         _____         ___          ___          ___           
     /  /\        /__/\        _____        /  /\       /  /::\       /__/\        /  /\        /__/\          
    /  /:/_      |  |::\      /  /::\      /  /:/_     /  /:/\:\     |  |::\      /  /::\       \  \:\         
   /  /:/ /\     |  |:|:\    /  /:/\:\    /  /:/ /\   /  /:/  \:\    |  |:|:\    /  /:/\:\       \  \:\        
  /  /:/ /:/_  __|__|:|\:\  /  /:/~/::\  /  /:/ /:/_ /__/:/ \__\:| __|__|:|\:\  /  /:/~/::\  _____\__\:\       
 /__/:/ /:/ /\/__/::::| \:\/__/:/ /:/\:|/__/:/ /:/ /\\  \:\ /  /://__/::::| \:\/__/:/ /:/\:\/__/::::::::\      
 \  \:\/:/ /:/\  \:\~~\__\/\  \:\/:/~/:/\  \:\/:/ /:/ \  \:\  /:/ \  \:\~~\__\/\  \:\/:/__\/\  \:\~~\~~\/      
  \  \::/ /:/  \  \:\       \  \::/ /:/  \  \::/ /:/   \  \:\/:/   \  \:\       \  \::/      \  \:\  ~~~       
   \  \:\/:/    \  \:\       \  \:\/:/    \  \:\/:/     \  \::/     \  \:\       \  \:\       \  \:\           
    \  \::/      \  \:\       \  \::/      \  \::/       \__\/       \  \:\       \  \:\       \  \:\          
     \__\/        \__\/        \__\/        \__\/                     \__\/        \__\/        \__\/          
 ----------------------------------------------------------------------------------
Embedman Begin 
 This implementation of density embedding was adapted from the introduced by Fred Manby et al.
 A Simple, Exact Density-Functional-Theory Embedding Scheme 
 F R Manby, M Stella, J D Goodpaster, T F Miller, J. Chem. Theory Comput., 8, 2564 (2012) 10.1021/ct300544e

       Embedding Rem Variables Interpreted as:
           Embed_Thresh = 0.500000
           Embed_Mu = 10^7
           Embed_Theory = 1
 ----------------------------------------------------------------------------------
Embed: Will perform CCSD(T) calculation on embedded system
NDen = 1
Embed: Performing SCF on full system:

                       Distance Matrix (Angstroms)
             O (  1)   H (  2)   H (  3)   O (  4)   H (  5)
   H (  2)  0.989946
   H (  3)  0.990002  1.565282
   O (  4)  3.498324  2.694946  3.625168
   H (  5)  4.454143  3.608970  4.611359  0.990225
   H (  6)  3.308894  2.635683  3.587163  0.990028  1.566332
 
 Job number = 2, Threshold = 1.00E-08
Integral type ranges set in mkLRange.C for JobNum: 2  <1-21|1-21>
Symmetry turned off temporarily
 Using the largest function pair in Schwarz integrals
Total number of integrals generated =           10886
Symmetry turned back on
 A cutoff of  1.0D-08 yielded    121 shell pairs
 There are       692 function pairs
 Job number = 11, Threshold = 1.00E-08
Integral type ranges set in mkLRange.C for JobNum: 11  <1-21|22-22>
Total number of integrals generated =            4152
 Smallest overlap matrix eigenvalue = 2.21E-02
 Multipole matrices computed through 2nd order

  Scale SEOQF with 1.000000e-01/1.000000e-01/1.000000e+00

 Standard Electronic Orientation quadrupole field applied
 Nucleus-field energy     =     0.0000000100 hartrees
 Guess from superposition of atomic densities
 Warning:  Energy on first SCF cycle will be non-variational
scfman initvdwdat 
 A restricted Kohn-Sham SCF calculation will be
 performed using Pulay DIIS extrapolation
 Exchange:  PBE      Correlation:  PBE
 Using SG-1 standard quadrature grid
 SCF converges when DIIS error is below 1.0E-05
 Requested basis set is 6-31G(d)
 There are 16 shells and 38 basis functions
 Automatically selecting CFMM grain
 Grain Lo Hi            4           4
 Autograin says CFMM not worth it
 Job number = 2, Threshold = 1.00E-08
Integral type ranges set in mkLRange.C for JobNum: 2  <1-21|1-21>
Symmetry turned off temporarily
Total number of integrals generated =           10886
Symmetry turned back on
 A cutoff of  1.0D-08 yielded    121 shell pairs
 There are       692 function pairs
 Job number = 20, Threshold = 1.00E-08
Integral type ranges set in mkLRange.C for JobNum: 20  <1-21|1-21>
Storing 758.28% of integrals
Total number of integrals generated =          236907
 J construction time:  CPU 0.09 s  wall 0.09 s
Target Grid is being used
 CPU 0.00 s  wall 0.00 s
NTotSigB2 = 80381
Total Number of Grid Points = 16448
 CPU 0.26 s  wall 0.26 s

 Total DFTman time = 0.26 CPUs 0.26 Wall
*** EV =  -424.4958188644 ***
*** E1 - EV =   151.4306246738 ***
*** ET =   151.4306246808 ***
*** *********** ***
*** ENuclear = 33.038976 ***
*** E1 = -273.065194 ***
*** EJ = 105.562183 ***
*** EX = -17.514542 ***
*** EC = -0.635816 ***
*** *********** ***
*** ETot = -152.614394 ***
Fock build time:  0.35 s (CPU) 0.35 s (wall)
DIIS Errors:  Max 8.87E-01 RMS 1.08E-01

Current DIIS subspace size = 1
REM_GRID_RESTART_DIIS = 0

 ---------------------------------------
  Cycle       Energy         DIIS Error
 ---------------------------------------
    1    -152.6143935712      1.08E-01  00000
 Job number = 20, Threshold = 1.00E-08
Integral type ranges set in mkLRange.C for JobNum: 20  <1-21|1-21>
Storing 758.28% of integrals
Reusing in-core integrals buffer for job 20
 J construction time:  CPU 0.06 s  wall 0.06 s
Target Grid is being used
 CPU 0.00 s  wall 0.00 s
NTotSigB2 = 80381
Total Number of Grid Points = 16448
 CPU 0.22 s  wall 0.22 s

 Total DFTman time = 0.22 CPUs 0.22 Wall
*** EV =  -433.9126165314 ***
*** E1 - EV =   154.6817008508 ***
*** ET =   154.6817008585 ***
*** *********** ***
*** ENuclear = 33.038976 ***
*** E1 = -279.230916 ***
*** EJ = 112.652100 ***
*** EX = -18.294389 ***
*** EC = -0.668138 ***
*** *********** ***
*** ETot = -152.502366 ***
Fock build time:  0.28 s (CPU) 0.28 s (wall)
DIIS Errors:  Max 2.92E-01 RMS 3.31E-02

Current DIIS subspace size = 2
REM_GRID_RESTART_DIIS = 0

    2    -152.5023664581      3.31E-02  00000
 Job number = 20, Threshold = 1.00E-08
Integral type ranges set in mkLRange.C for JobNum: 20  <1-21|1-21>
Storing 758.28% of integrals
Reusing in-core integrals buffer for job 20
 J construction time:  CPU 0.05 s  wall 0.05 s
Target Grid is being used
 CPU 0.00 s  wall 0.00 s
NTotSigB2 = 80381
Total Number of Grid Points = 16448
 CPU 0.22 s  wall 0.22 s

 Total DFTman time = 0.22 CPUs 0.22 Wall
*** EV =  -415.7716948544 ***
*** E1 - EV =   146.2881686708 ***
*** ET =   146.2881686776 ***
*** *********** ***
*** ENuclear = 33.038976 ***
*** E1 = -269.483526 ***
*** EJ = 101.860782 ***
*** EX = -17.076991 ***
*** EC = -0.637595 ***
*** *********** ***
*** ETot = -152.298353 ***
Fock build time:  0.27 s (CPU) 0.28 s (wall)
DIIS Errors:  Max 4.67E-01 RMS 5.09E-02

Current DIIS subspace size = 3
REM_GRID_RESTART_DIIS = 0

    3    -152.2983532938      5.09E-02  00000
 Job number = 20, Threshold = 1.00E-08
Integral type ranges set in mkLRange.C for JobNum: 20  <1-21|1-21>
Storing 758.28% of integrals
Reusing in-core integrals buffer for job 20
 J construction time:  CPU 0.05 s  wall 0.05 s
Target Grid is being used
 CPU 0.00 s  wall 0.00 s
NTotSigB2 = 80381
Total Number of Grid Points = 16448
 CPU 0.22 s  wall 0.22 s

 Total DFTman time = 0.22 CPUs 0.22 Wall
*** EV =  -427.0542002954 ***
*** E1 - EV =   151.4123480875 ***
*** ET =   151.4123480949 ***
*** *********** ***
*** ENuclear = 33.038976 ***
*** E1 = -275.641852 ***
*** EJ = 108.422079 ***
*** EX = -17.813778 ***
*** EC = -0.655689 ***
*** *********** ***
*** ETot = -152.650263 ***
Fock build time:  0.27 s (CPU) 0.28 s (wall)
DIIS Errors:  Max 5.18E-03 RMS 8.67E-04

Current DIIS subspace size = 4
REM_GRID_RESTART_DIIS = 0

    4    -152.6502628987      8.67E-04  00000
 Job number = 20, Threshold = 1.00E-08
Integral type ranges set in mkLRange.C for JobNum: 20  <1-21|1-21>
Storing 758.28% of integrals
Reusing in-core integrals buffer for job 20
 J construction time:  CPU 0.05 s  wall 0.05 s
Target Grid is being used
 CPU 0.00 s  wall 0.00 s
NTotSigB2 = 80381
Total Number of Grid Points = 16448
 CPU 0.20 s  wall 0.20 s

 Total DFTman time = 0.20 CPUs 0.20 Wall
*** EV =  -426.9059712511 ***
*** E1 - EV =   151.3472314650 ***
*** ET =   151.3472314724 ***
*** *********** ***
*** ENuclear = 33.038976 ***
*** E1 = -275.558740 ***
*** EJ = 108.327723 ***
*** EX = -17.803090 ***
*** EC = -0.655245 ***
*** *********** ***
*** ETot = -152.650375 ***
Fock build time:  0.25 s (CPU) 0.25 s (wall)
DIIS Errors:  Max 1.55E-03 RMS 2.24E-04

Current DIIS subspace size = 5
REM_GRID_RESTART_DIIS = 0

    5    -152.6503754856      2.24E-04  00000
 Job number = 20, Threshold = 1.00E-08
Integral type ranges set in mkLRange.C for JobNum: 20  <1-21|1-21>
Storing 758.28% of integrals
Reusing in-core integrals buffer for job 20
 J construction time:  CPU 0.05 s  wall 0.05 s
Target Grid is being used
 CPU 0.00 s  wall 0.00 s
NTotSigB2 = 80381
Total Number of Grid Points = 16448
 CPU 0.19 s  wall 0.19 s

 Total DFTman time = 0.19 CPUs 0.19 Wall
*** EV =  -426.9201921122 ***
*** E1 - EV =   151.3557061360 ***
*** ET =   151.3557061434 ***
*** *********** ***
*** ENuclear = 33.038976 ***
*** E1 = -275.564486 ***
*** EJ = 108.334415 ***
*** EX = -17.804031 ***
*** EC = -0.655255 ***
*** *********** ***
*** ETot = -152.650381 ***
Fock build time:  0.24 s (CPU) 0.24 s (wall)
DIIS Errors:  Max 9.80E-04 RMS 9.36E-05

Current DIIS subspace size = 6
REM_GRID_RESTART_DIIS = 0

    6    -152.6503810823      9.36E-05  00000
 Job number = 20, Threshold = 1.00E-08
Integral type ranges set in mkLRange.C for JobNum: 20  <1-21|1-21>
Storing 758.28% of integrals
Reusing in-core integrals buffer for job 20
 J construction time:  CPU 0.05 s  wall 0.05 s
Target Grid is being used
 CPU 0.00 s  wall 0.00 s
NTotSigB2 = 80381
Total Number of Grid Points = 16448
 CPU 0.19 s  wall 0.19 s

 Total DFTman time = 0.19 CPUs 0.19 Wall
*** EV =  -426.9235517298 ***
*** E1 - EV =   151.3572997920 ***
*** ET =   151.3572997994 ***
*** *********** ***
*** ENuclear = 33.038976 ***
*** E1 = -275.566252 ***
*** EJ = 108.336431 ***
*** EX = -17.804275 ***
*** EC = -0.655262 ***
*** *********** ***
*** ETot = -152.650382 ***
Fock build time:  0.24 s (CPU) 0.24 s (wall)
DIIS Errors:  Max 3.83E-04 RMS 3.23E-05

Current DIIS subspace size = 7
REM_GRID_RESTART_DIIS = 0

    7    -152.6503821100      3.23E-05  00000
 Job number = 20, Threshold = 1.00E-08
Integral type ranges set in mkLRange.C for JobNum: 20  <1-21|1-21>
Storing 758.28% of integrals
Reusing in-core integrals buffer for job 20
 J construction time:  CPU 0.05 s  wall 0.05 s
Target Grid is being used
 CPU 0.00 s  wall 0.00 s
NTotSigB2 = 80381
Total Number of Grid Points = 16448
 CPU 0.16 s  wall 0.17 s

 Total DFTman time = 0.16 CPUs 0.17 Wall
*** EV =  -426.9272301356 ***
*** E1 - EV =   151.3588425383 ***
*** ET =   151.3588425457 ***
*** *********** ***
*** ENuclear = 33.038976 ***
*** E1 = -275.568388 ***
*** EJ = 108.338818 ***
*** EX = -17.804519 ***
*** EC = -0.655270 ***
*** *********** ***
*** ETot = -152.650382 ***
Fock build time:  0.22 s (CPU) 0.22 s (wall)
DIIS Errors:  Max 1.12E-05 RMS 1.67E-06

Current DIIS subspace size = 8
REM_GRID_RESTART_DIIS = 0

    8    -152.6503821536      1.67E-06  00000 Convergence criterion met
 ---------------------------------------
 SCF time:  CPU 2.14 s  wall 2.15 s
 SCF   energy in the final basis set = -152.6503821536
 Total energy in the final basis set = -152.6503821536
Embed: Performing Boys localization on full system:
 
 
 
Calling Get_Boys in C++
 
 
 
Orbital 2 Variance 0.0538519342
Orbital 1 Variance 0.0538527104
Orbital 3 Variance 1.8645198251
Orbital 4 Variance 1.8700178778
Orbital 10 Variance 2.2098889216
Orbital 9 Variance 2.2704174701
Orbital 7 Variance 3.3119854667
Orbital 8 Variance 3.3888051957
Orbital 5 Variance 3.5160395579
Orbital 6 Variance 3.5642332727
Calling Random Orthogonal Matrix...
RandomSeed = 25
location random matrix in checkantisymmetry: max_diff = 0.000000e+00
location random matrix in checkunitary: max_diff = 3.330669e-16
          ***** NUMBER OF SADDLE POINTS SO FAR = 0 ******

Initially in boys_jacobi.C before sweep, get_boys, boysval = 372.754135
In BOYS_JACOBI SWEEPS for get_boys, ending in round     9  because max_diff = 4.382581e-07


---> BEGIN 2nd Der Calculation    ******  
Guessing MaxD =  20 and MinD = 10
in get_boys.C: p = 0 guessthresh   2.3217001691 numsofar 4 MinD 10
DimInGuess 4 mineval   1.3217001691 guessthresh   2.3217001691
round 0 sizeofsub 4 eval0 9.747435e-01 diffeval0 9.999997e+04 length_qM 5.099484e-02 thresh 1.000000e-08
round 1 sizeofsub 5 eval0 9.733519e-01 diffeval0 1.391671e-03 length_qM 5.097774e-02 thresh 1.000000e-08
round 2 sizeofsub 6 eval0 9.722305e-01 diffeval0 1.121411e-03 length_qM 2.032049e-02 thresh 1.000000e-08
round 3 sizeofsub 7 eval0 9.722002e-01 diffeval0 3.029806e-05 length_qM 3.833843e-03 thresh 1.000000e-08
round 4 sizeofsub 8 eval0 9.722000e-01 diffeval0 1.211660e-07 length_qM 3.214954e-04 thresh 1.000000e-08
round 5 sizeofsub 9 eval0 9.722000e-01 diffeval0 4.400828e-09 length_qM 8.028139e-05 thresh 1.000000e-08
round 6 sizeofsub 10 eval0 9.722000e-01 diffeval0 1.506789e-10 length_qM 2.232883e-05 thresh 1.000000e-08
round 7 sizeofsub 11 eval0 9.722000e-01 diffeval0 3.865908e-12 length_qM 9.872410e-07 thresh 1.000000e-08
Converged to smallest eigenvalue: eval0 9.722000e-01

Success!!! No Negative Eigenvalues: Ending Get Boys in C++ ...Bye Bye
Orbital 2 Variance 0.0580904085
Orbital 1 Variance 0.0581500252
Orbital 9 Variance 1.7004352765
Orbital 8 Variance 1.7159241970
Orbital 10 Variance 1.7440855748
Orbital 7 Variance 1.7746538540
Orbital 5 Variance 1.7812392788
Orbital 6 Variance 1.7868240791
Orbital 4 Variance 1.7891953759
Orbital 3 Variance 1.7989408698
EXECUTING ORTHO_FUNC DESTRUCTOR
Embed: NFrgm = 2

--------------------------
       Embed Summary      
--------------------------
    MO     Frg    Sum
     0      1     0.999985
     1      0     1.000000
     2      1     0.998601
     3      0     1.000009
     4      1     1.000857
     5      0     0.999181
     6      1     0.989076
     7      0     0.999353
     8      1     0.999955
     9      0     0.998259
--------------------------

Embed: MO2DenFrg selecting MOs in Fragment 0
Embed: 3 atoms in fragment 0
Embed: 3 atoms in fragment 1
 ----------------------------------------------------------------
             Standard Nuclear Orientation (Angstroms)
    I     Atom           X                Y                Z
 ----------------------------------------------------------------
    1      O      -1.0689400000     2.5847600000    -0.0488700000
    2      H      -0.1697100000     2.4351800000     0.3371400000
    3      H      -1.1229700000     1.9475700000    -0.8046300000
    4      GH      2.4098900000     2.6583500000    -0.4102500000
    5      GH      3.3771300000     2.7777300000    -0.2349200000
    6      GH      2.0559300000     3.5795100000    -0.4898200000
 ----------------------------------------------------------------
 Nuclear Repulsion Energy =     8.8906573944 hartrees
 There are       10 alpha and       10 beta electrons
Embed: Performing SCF on subsystem:

                       Distance Matrix (Angstroms)
             O (  1)   H (  2)   H (  3)   GH(  4)   GH(  5)
   H (  2)  0.989946
   H (  3)  0.990002  1.565282
   GH(  4)  3.498324  2.694946  3.625168
   GH(  5)  4.454143  3.608970  4.611359  0.990225
   GH(  6)  3.308894  2.635683  3.587163  0.990028  1.566332
 
 Applying Cartesian multipole field
    Component          Value
    ---------          -----
     (2,0,0)        1.00000E-11
     (0,2,0)        2.00000E-11
     (0,0,2)       -3.00000E-10
 Nucleus-field energy     =     0.0000000040 hartrees
 Job number = 11, Threshold = 1.00E-08
Integral type ranges set in mkLRange.C for JobNum: 11  <1-21|22-22>
Total number of integrals generated =            4152
 Smallest overlap matrix eigenvalue = 2.21E-02
 Multipole matrices computed through 2nd order
 Guess from superposition of atomic densities
 Warning:  Energy on first SCF cycle will be non-variational
 A restricted Kohn-Sham SCF calculation will be
 performed using Pulay DIIS extrapolation
 Exchange:  PBE      Correlation:  PBE
 Using SG-1 standard quadrature grid
 SCF converges when DIIS error is below 1.0E-05


============= Density Embedding SCF Cycles Begin ================
EMBED_MU = 7.0000000000
mu = 10000000.0000000000
 Job number = 20, Threshold = 1.00E-08
Integral type ranges set in mkLRange.C for JobNum: 20  <1-21|1-21>
Storing 758.28% of integrals
Total number of integrals generated =          241059
 J construction time:  CPU 0.08 s  wall 0.08 s
Target Grid is being used
 CPU 0.00 s  wall 0.00 s
ghost atom: 4, atomic number for atomic grid: 8
ghost atom: 5, atomic number for atomic grid: 1
ghost atom: 6, atomic number for atomic grid: 1
NTotSigB2 = 80381
Total Number of Grid Points = 16448
 CPU 0.13 s  wall 0.13 s

 Total DFTman time = 0.13 CPUs 0.13 Wall
*** EV =  -204.6195913709 ***
*** E1 - EV =    75.7153123378 ***
*** ET =    75.7153123404 ***
*** *********** ***
*** ENuclear = 8.890657 ***
*** E1 = -128.904279 ***
*** EJ = 52.835416 ***
*** EX = -8.756818 ***
*** EC = -0.317375 ***
*** *********** ***
*** ETot = -76.252399 ***
Fock build time:  0.21 s (CPU) 0.21 s (wall)
DIIS Errors:  Max 2.54E+05 RMS 2.97E+04

Current DIIS subspace size = 1
REM_GRID_RESTART_DIIS = 0

 ---------------------------------------
  Cycle       Energy         DIIS Error
 ---------------------------------------
    1     -76.2523987779      2.97E+04  00000
 Job number = 20, Threshold = 1.00E-08
Integral type ranges set in mkLRange.C for JobNum: 20  <1-21|1-21>
Storing 758.28% of integrals
Reusing in-core integrals buffer for job 20
 J construction time:  CPU 0.05 s  wall 0.05 s
Target Grid is being used
 CPU 0.00 s  wall 0.00 s
ghost atom: 4, atomic number for atomic grid: 8
ghost atom: 5, atomic number for atomic grid: 1
ghost atom: 6, atomic number for atomic grid: 1
NTotSigB2 = 80381
Total Number of Grid Points = 16448
 CPU 0.21 s  wall 0.21 s

 Total DFTman time = 0.21 CPUs 0.21 Wall
*** EV =  -209.6006797001 ***
*** E1 - EV =    77.5093502261 ***
*** ET =    77.5093502294 ***
*** *********** ***
*** ENuclear = 8.890657 ***
*** E1 = -132.091329 ***
*** EJ = 56.608064 ***
*** EX = -9.179331 ***
*** EC = -0.335660 ***
*** *********** ***
*** ETot = -76.107599 ***
Fock build time:  0.26 s (CPU) 0.26 s (wall)
DIIS Errors:  Max 3.01E-01 RMS 2.69E-02

Current DIIS subspace size = 2
REM_GRID_RESTART_DIIS = 0

    2     -76.1075991909      2.69E-02  00000
 Job number = 20, Threshold = 1.00E-08
Integral type ranges set in mkLRange.C for JobNum: 20  <1-21|1-21>
Storing 758.28% of integrals
Reusing in-core integrals buffer for job 20
 J construction time:  CPU 0.05 s  wall 0.05 s
Target Grid is being used
 CPU 0.00 s  wall 0.00 s
ghost atom: 4, atomic number for atomic grid: 8
ghost atom: 5, atomic number for atomic grid: 1
ghost atom: 6, atomic number for atomic grid: 1
NTotSigB2 = 80381
Total Number of Grid Points = 16448
 CPU 0.21 s  wall 0.21 s

 Total DFTman time = 0.21 CPUs 0.21 Wall
*** EV =  -198.8719913191 ***
*** E1 - EV =    72.4659779637 ***
*** ET =    72.4659779662 ***
*** *********** ***
*** ENuclear = 8.890657 ***
*** E1 = -126.406013 ***
*** EJ = 50.307993 ***
*** EX = -8.459621 ***
*** EC = -0.319784 ***
*** *********** ***
*** ETot = -75.986768 ***
Fock build time:  0.27 s (CPU) 0.27 s (wall)
DIIS Errors:  Max 4.85E-01 RMS 4.46E-02

Current DIIS subspace size = 3
REM_GRID_RESTART_DIIS = 0

    3     -75.9867679613      4.46E-02  00000
 Job number = 20, Threshold = 1.00E-08
Integral type ranges set in mkLRange.C for JobNum: 20  <1-21|1-21>
Storing 758.28% of integrals
Reusing in-core integrals buffer for job 20
 J construction time:  CPU 0.05 s  wall 0.05 s
Target Grid is being used
 CPU 0.00 s  wall 0.00 s
ghost atom: 4, atomic number for atomic grid: 8
ghost atom: 5, atomic number for atomic grid: 1
ghost atom: 6, atomic number for atomic grid: 1
NTotSigB2 = 80381
Total Number of Grid Points = 16448
 CPU 0.21 s  wall 0.21 s

 Total DFTman time = 0.21 CPUs 0.21 Wall
*** EV =  -205.9532507271 ***
*** E1 - EV =    75.7085536255 ***
*** ET =    75.7085536286 ***
*** *********** ***
*** ENuclear = 8.890657 ***
*** E1 = -130.244697 ***
*** EJ = 54.363993 ***
*** EX = -8.918616 ***
*** EC = -0.329585 ***
*** *********** ***
*** ETot = -76.238248 ***
Fock build time:  0.26 s (CPU) 0.27 s (wall)
DIIS Errors:  Max 1.32E-02 RMS 1.87E-03

Current DIIS subspace size = 4
REM_GRID_RESTART_DIIS = 0

    4     -76.2382481777      1.87E-03  00000
 Job number = 20, Threshold = 1.00E-08
Integral type ranges set in mkLRange.C for JobNum: 20  <1-21|1-21>
Storing 758.28% of integrals
Reusing in-core integrals buffer for job 20
 J construction time:  CPU 0.05 s  wall 0.05 s
Target Grid is being used
 CPU 0.00 s  wall 0.00 s
ghost atom: 4, atomic number for atomic grid: 8
ghost atom: 5, atomic number for atomic grid: 1
ghost atom: 6, atomic number for atomic grid: 1
NTotSigB2 = 80381
Total Number of Grid Points = 16448
 CPU 0.18 s  wall 0.18 s

 Total DFTman time = 0.18 CPUs 0.18 Wall
*** EV =  -205.7503147108 ***
*** E1 - EV =    75.6200854448 ***
*** ET =    75.6200854479 ***
*** *********** ***
*** ENuclear = 8.890657 ***
*** E1 = -130.130229 ***
*** EJ = 54.239545 ***
*** EX = -8.905149 ***
*** EC = -0.329147 ***
*** *********** ***
*** ETot = -76.234323 ***
Fock build time:  0.24 s (CPU) 0.24 s (wall)
DIIS Errors:  Max 1.84E-03 RMS 2.60E-04

Current DIIS subspace size = 5
REM_GRID_RESTART_DIIS = 0

    5     -76.2343226836      2.60E-04  00000
 Job number = 20, Threshold = 1.00E-08
Integral type ranges set in mkLRange.C for JobNum: 20  <1-21|1-21>
Storing 758.28% of integrals
Reusing in-core integrals buffer for job 20
 J construction time:  CPU 0.05 s  wall 0.05 s
Target Grid is being used
 CPU 0.00 s  wall 0.00 s
ghost atom: 4, atomic number for atomic grid: 8
ghost atom: 5, atomic number for atomic grid: 1
ghost atom: 6, atomic number for atomic grid: 1
NTotSigB2 = 80381
Total Number of Grid Points = 16448
 CPU 0.17 s  wall 0.17 s

 Total DFTman time = 0.17 CPUs 0.17 Wall
*** EV =  -205.7588932069 ***
*** E1 - EV =    75.6241871675 ***
*** ET =    75.6241871706 ***
*** *********** ***
*** ENuclear = 8.890657 ***
*** E1 = -130.134706 ***
*** EJ = 54.243805 ***
*** EX = -8.905552 ***
*** EC = -0.329145 ***
*** *********** ***
*** ETot = -76.234940 ***
Fock build time:  0.22 s (CPU) 0.22 s (wall)
DIIS Errors:  Max 3.43E-04 RMS 4.80E-05

Current DIIS subspace size = 6
REM_GRID_RESTART_DIIS = 0

    6     -76.2349403252      4.80E-05  00000
 Job number = 20, Threshold = 1.00E-08
Integral type ranges set in mkLRange.C for JobNum: 20  <1-21|1-21>
Storing 758.28% of integrals
Reusing in-core integrals buffer for job 20
 J construction time:  CPU 0.05 s  wall 0.05 s
Target Grid is being used
 CPU 0.00 s  wall 0.00 s
ghost atom: 4, atomic number for atomic grid: 8
ghost atom: 5, atomic number for atomic grid: 1
ghost atom: 6, atomic number for atomic grid: 1
NTotSigB2 = 80381
Total Number of Grid Points = 16448
 CPU 0.14 s  wall 0.14 s

 Total DFTman time = 0.14 CPUs 0.14 Wall
*** EV =  -205.7623890415 ***
*** E1 - EV =    75.6260604004 ***
*** ET =    75.6260604034 ***
*** *********** ***
*** ENuclear = 8.890657 ***
*** E1 = -130.136329 ***
*** EJ = 54.245699 ***
*** EX = -8.905797 ***
*** EC = -0.329149 ***
*** *********** ***
*** ETot = -76.234918 ***
Fock build time:  0.19 s (CPU) 0.20 s (wall)
DIIS Errors:  Max 8.26E-05 RMS 9.05E-06

Current DIIS subspace size = 7
REM_GRID_RESTART_DIIS = 0

Embed: Etot without mu*tr(P*Proj) correction: -76.2349183433
Embed: mu*tr(P*Proj) = 0.0000000000
Embed: Etot with mu*tr(P*Proj) correction: -76.2349183433
Converged: Writing (jFA - mu*jProjOpA)


============= Embedding SCF End ================
    7     -76.2349183433      9.05E-06  00000 Convergence criterion met
 ---------------------------------------
 SCF time:  CPU 1.65 s  wall 1.66 s
 SCF   energy in the final basis set = -76.2349183433
 Total energy in the final basis set = -76.2349183433
embed_theory = 1
Embed: Will perform CCSD(T) calculation on embedded system


 ------------------------------------------------------------------------------
 ccman2 parameters structure

ccman1 = 0
ccman2 = 1
ccman2.capable = 1
ccman2.cholesky_ccsd = 0
ccman2.cholesky_eomdip_ccsd = 0
ccman2.cholesky_eomea_ccsd = 0
ccman2.cholesky_eomee_ccsd = 0
ccman2.cholesky_eomip_ccsd = 0
ccman2.cholesky_eomsf_ccsd = 0
ccman2.complex_ccman = 0
ccman2.cs_ccsd = 0
ccman2.cs_hf = 0
ccman2.memory = 1536
ccman2.mp2 = 1
ccman2.ri_ccsd = 0
ccman2.ri_eomdip_ccsd = 0
ccman2.ri_eomea_ccsd = 0
ccman2.ri_eomee_ccsd = 0
ccman2.ri_eomip_ccsd = 0
ccman2.ri_eomsf_ccsd = 0
ccman2.threads = 1
ccman2.aoints = 0
ccman2.canmo = 1
ccman2.canmo.active_space = 0
ccman2.canmo.blksz = 16
ccman2.canmo.eri = motran
ccman2.canmo.full_space = 1
ccman2.canmo.thresh = 1e-07
ccman2.canmo.unrestricted = 0
ccman2.canmo.motran.no = 1
ccman2.canmo.motran.nv = 1
ccman2.canmo.motran.only_oovv = 0
ccman2.canmo.sizes.nalpha = 5
ccman2.canmo.sizes.nbasis = 38
ccman2.canmo.sizes.nbeta = 5
ccman2.canmo.sizes.nlinbasis = 38
ccman2.canmo.sizes.norbs_per_block = 16
ccman2.canmo.sizes.nreordermos = 0
ccman2.canmo.sizes.ns2 = 692
ccman2.canmo.sizes.ns2car = 692
ccman2.canmo.sizes.frozen.occ = 0
ccman2.canmo.sizes.frozen.virt = 0
ccman2.canmo.sizes.restr.occ = 0
ccman2.canmo.sizes.restr.virt = 0
ccman2.ccd = 0
ccman2.ccsd = 1
ccman2.ccsd.i = 0
ccman2.ccsd.l = 0
ccman2.ccsd.pdt = 0
ccman2.ccsd.pft = 0
ccman2.ccsd.print = 1
ccman2.ccsd.print.nmin = 4
ccman2.ccsd.print.rthresh1 = 0.1
ccman2.ccsd.print.rthresh2 = 0.0001
ccman2.ccsd.pt = 0
ccman2.ccsd.t = 1
ccman2.ccsd.t.solver = diis
ccman2.ccsd.t.diis.econv = 1e-06
ccman2.ccsd.t.diis.freq = 1
ccman2.ccsd.t.diis.max_overlap = 1
ccman2.ccsd.t.diis.maxiter = 100
ccman2.ccsd.t.diis.min_overlap = 1e-11
ccman2.ccsd.t.diis.restart = 0
ccman2.ccsd.t.diis.size = 7
ccman2.ccsd.t.diis.start = 3
ccman2.ccsd.t.diis.tconv = 0.0001
ccman2.eomdip_ccsd = 0
ccman2.eomea_ccsd = 0
ccman2.eomee_ccsd = 0
ccman2.eomip_ccsd = 0
ccman2.eomsf_ccsd = 0
ccman2.fno = 0
ccman2.gradient = 0
ccman2.gradient_fdiff = 1
ccman2.gradient_fdiff.nslots = 1
ccman2.gradient_fdiff.1.no = 1
ccman2.gradient_fdiff.1.nv = 1
ccman2.gradient_fdiff.1.path = ccsd
ccman2.gradient_fdiff.1.slot = opt
ccman2.hf = 1
ccman2.hf.active_space = 0
ccman2.hf.eri = none
ccman2.hf.full_space = 1
ccman2.hf.symmetry = 0
ccman2.hf.unrestricted = 0
ccman2.hf.sizes.nalpha = 5
ccman2.hf.sizes.nbasis = 38
ccman2.hf.sizes.nbeta = 5
ccman2.hf.sizes.nlinbasis = 38
ccman2.hf.sizes.norbs_per_block = 16
ccman2.hf.sizes.nreordermos = 0
ccman2.hf.sizes.ns2 = 692
ccman2.hf.sizes.ns2car = 692
ccman2.hf.sizes.frozen.occ = 0
ccman2.hf.sizes.frozen.virt = 0
ccman2.hf.sizes.restr.occ = 0
ccman2.hf.sizes.restr.virt = 0
ccman2.mp3 = 0
ccman2.qcimport.active_space.blksz = 16
ccman2.qcimport.mos.blksz = 16
ccman2.qcimport.mos.scf_thresh = 1e-05
ccman2.qcimport.oe.cap_matrix = 0
ccman2.qcimport.oe.dx = 1
ccman2.qcimport.oe.dxx = 1
ccman2.qcimport.oe.fock = 1
ccman2.qcimport.oe.ke = 1
ccman2.qcimport.oe.nuce = 1
ccman2.qcimport.oe.overlap = 1
ccman2.qcisd = 0
ccman2.rpa = 0
ccman2.rpax2 = 0
sizes.nalpha = 5
sizes.nbasis = 38
sizes.nbeta = 5
sizes.nlinbasis = 38
sizes.norbs_per_block = 16
sizes.nreordermos = 0
sizes.ns2 = 692
sizes.ns2car = 692
sizes.frozen.occ = 0
sizes.frozen.virt = 0
sizes.restr.occ = 0
sizes.restr.virt = 0

 ------------------------------------------------------------------------------



 ------------------------------------------------------------------------------

   CCMAN2: suite of methods based on coupled cluster
           and equation of motion theories.

   Components:
   * libvmm-1.2-release
     by Evgeny Epifanovsky, Ilya Kaliman.
   * libtensor-2.3-release
     by Evgeny Epifanovsky, Michael Wormit, Dmitry Zuev, Sam Manzer.
   * libcc-2.3-release
     by Evgeny Epifanovsky, Arik Landau, Tomasz Kus, Kirill Khistyaev, 
        Dmitry Zuev, Prashant Manohar, Xintian Feng, Anna Krylov, 
        Matthew Goldey, Alec White, Thomas Jagau.

   CCMAN original authors:
   Anna I. Krylov, C. David Sherrill, Steven R. Gwaltney,
   Edward F. C. Byrd (2000)
   Sergey V. Levchenko, Lyudmila V. Slipchenko, Tao Wang,
   Ana-Maria C. Cristian (2003)
   Piotr A. Pieniazek, C. Melania Oana, Evgeny Epifanovsky (2007)
   Prashant Manohar (2009)

 ------------------------------------------------------------------------------


 Calculation will run on 1 core with 1536MB of RAM.


 Occupation and symmetry of molecular orbitals

 Point group: C1 (1 irreducible representation).

                           A     All 
 -------------------------------------
 All molecular orbitals:
  - Alpha                  38    38  
  - Beta                   38    38  
 -------------------------------------
 Alpha orbitals:
  - Frozen occupied        0     0   
  - Active occupied        5     5   
  - Active virtual         33    33  
  - Frozen virtual         0     0   
 -------------------------------------
 Beta orbitals:
  - Frozen occupied        0     0   
  - Active occupied        5     5   
  - Active virtual         33    33  
  - Frozen virtual         0     0   
 -------------------------------------

 Import integrals:   CPU 0.00 s  wall 0.00 s

 Molecular orbitals will be canonicalized.
 
 Entering first-index batching code with I1Strt =    1 batch size =   38
 Job number = 52, Threshold = 1.00E-08
Integral type ranges set in mkLRange.C for JobNum: 52  <1-21|1-21>
Symmetry turned off temporarily
Storing 758.28% of integrals
Total number of integrals generated =          478864
Symmetry turned back on
 Import integrals:   CPU 0.49 s  wall 0.49 s

 MP2 amplitudes:   CPU 0.01 s  wall 0.01 s

           CCSD T amplitudes will be solved using DIIS.
           Estimated memory + disk requirements 23 MB +/-

           Start     Size      MaxIter   EConv     TConv     
           3         7         100       1.0e-06   0.00010   
 ------------------------------------------------------------------------------
           Energy (a.u.)   Ediff      Tdiff       Comment
 ------------------------------------------------------------------------------
           -76.52385556                           
     1     -76.53042116   6.57e-03   5.39e-01     
     2     -76.54254257   1.21e-02   5.61e-02     
     3     -76.54773334   5.19e-03   2.88e-02     
     4     -76.55496653   7.23e-03   7.06e-03     Switched to DIIS steps.
     5     -76.55594854   9.82e-04   4.64e-03     
     6     -76.55662051   6.72e-04   2.87e-02     
     7     -76.55786721   1.25e-03   4.11e-03     
     8     -76.55826177   3.95e-04   2.14e-03     
     9     -76.55727647   9.85e-04   9.60e-03     
    10     -76.55644202   8.34e-04   3.63e-03     
    11     -76.55717638   7.34e-04   1.10e-02     
    12     -76.55716214   1.42e-05   9.68e-03     
    13     -76.55673206   4.30e-04   5.50e-03     
    14     -76.55636990   3.62e-04   1.21e-04     
    15     -76.55639413   2.42e-05   1.60e-04     
    16     -76.55644938   5.53e-05   2.07e-04     
    17     -76.55653157   8.22e-05   1.36e-05     
    18     -76.55658277   5.12e-05   1.67e-04     
    19     -76.55646301   1.20e-04   1.67e-03     
    20     -76.55647821   1.52e-05   8.67e-05     
    21     -76.55645351   2.47e-05   6.72e-04     
    22     -76.55650200   4.85e-05   2.51e-03     
    23     -76.55631081   1.91e-04   2.01e-03     
    24     -76.55622993   8.09e-05   1.22e-03     
    25     -76.55623596   6.04e-06   1.43e-04     
    26     -76.55623173   4.24e-06   2.59e-05     
    27     -76.55623475   3.02e-06   2.57e-04     
    28     -76.55622831   6.44e-06   8.51e-05     
    29     -76.55621932   8.99e-06   5.10e-05     
    30     -76.55621770   1.62e-06   2.08e-06     
    31     -76.55621745   2.56e-07   1.03e-06     
 ------------------------------------------------------------------------------
           -76.55621745                           CCSD T converged.

 SCF energy                 = -76.23491834
 MP2 energy                 = -76.52385556
 CCSD correlation energy    =  -0.32129910
 CCSD total energy          = -76.55621745

 CCSD  T1^2 = 0.0604  T2^2 = 0.2269.  Leading amplitudes:

 Amplitude    Orbitals with energies
 -0.1480       4 (A) A                   ->    6 (A) A                    
               0.4554                          0.7852                     
 -0.1480       4 (A) B                   ->    6 (A) B                    
               0.4554                          0.7852                     
 -0.0675       3 (A) A                   ->    6 (A) A                    
               0.3307                          0.7852                     
 -0.0675       3 (A) B                   ->    6 (A) B                    
               0.3307                          0.7852                     

 Amplitude    Orbitals with energies
 -0.1583       3 (A) A       3 (A) B     ->    6 (A) A       6 (A) B      
               0.3307        0.3307            0.7852        0.7852       
  0.1583       3 (A) A       3 (A) B     ->    6 (A) B       6 (A) A      
               0.3307        0.3307            0.7852        0.7852       
  0.1583       3 (A) B       3 (A) A     ->    6 (A) A       6 (A) B      
               0.3307        0.3307            0.7852        0.7852       
 -0.1583       3 (A) B       3 (A) A     ->    6 (A) B       6 (A) A      
               0.3307        0.3307            0.7852        0.7852       
 -0.1429       5 (A) A       5 (A) B     ->    6 (A) A       6 (A) B      
               0.5426        0.5426            0.7852        0.7852       
  0.1429       5 (A) A       5 (A) B     ->    6 (A) B       6 (A) A      
               0.5426        0.5426            0.7852        0.7852       
  0.1429       5 (A) B       5 (A) A     ->    6 (A) A       6 (A) B      
               0.5426        0.5426            0.7852        0.7852       
 -0.1429       5 (A) B       5 (A) A     ->    6 (A) B       6 (A) A      
               0.5426        0.5426            0.7852        0.7852       

 CCSD calculation:   CPU 39.10 s  wall 39.05 s



 ------------------------------------------------------------------------------
 contents of the context

/canmo/ao/dx_bb
/canmo/ao/dxx_bb
/canmo/ao/dy_bb
/canmo/ao/dyy_bb
/canmo/ao/dz_bb
/canmo/ao/dzz_bb
/canmo/ao/fa_bb
/canmo/ao/fb_bb
/canmo/ao/ke_bb
/canmo/ao/s_bb
/canmo/ccsd/energy
/canmo/ccsd/fz_oo
/canmo/ccsd/fz_vv
/canmo/ccsd/t1
/canmo/ccsd/t2
/canmo/ccsd/t_converged
/canmo/ccsd/total_energy
/canmo/hf/c_fb
/canmo/hf/c_o1b
/canmo/hf/c_v1b
/canmo/hf/ej
/canmo/hf/eka
/canmo/hf/ekb
/canmo/hf/energy
/canmo/hf/f_o1o1
/canmo/hf/f_o1v1
/canmo/hf/f_v1v1
/canmo/hf/fd_o1
/canmo/hf/fd_v1
/canmo/hf/frozen_core_energy
/canmo/hf/i_o1o1o1o1
/canmo/hf/i_o1o1o1v1
/canmo/hf/i_o1o1v1v1
/canmo/hf/i_o1v1o1v1
/canmo/hf/i_o1v1v1v1
/canmo/hf/i_v1v1v1v1
/canmo/hf/ke_o1o1
/canmo/hf/ke_o1v1
/canmo/hf/ke_v1v1
/canmo/hf/kin_energy
/canmo/hf/nossa
/canmo/hf/nossb
/canmo/hf/nuc_attr_energy
/canmo/hf/nuc_energy
/canmo/hf/nvssa
/canmo/hf/nvssb
/canmo/hf/oe_f
/canmo/hf/oe_o1
/canmo/hf/oe_v1
/canmo/hf/oemap_f
/canmo/hf/omap_f
/canmo/hf/omap_o1
/canmo/hf/omap_v1
/canmo/hf/total_energy
/canmo/hf/unrestricted
/canmo/mp2/d_ov
/canmo/mp2/energy
/canmo/mp2/t1
/canmo/mp2/t2
/canmo/mp2/total_energy
/canmo/prop/dx_bb
/canmo/prop/dx_o1o1
/canmo/prop/dx_o1v1
/canmo/prop/dx_v1v1
/canmo/prop/dxx_bb
/canmo/prop/dxx_o1o1
/canmo/prop/dxx_o1v1
/canmo/prop/dxx_v1v1
/canmo/prop/dy_bb
/canmo/prop/dy_o1o1
/canmo/prop/dy_o1v1
/canmo/prop/dy_v1v1
/canmo/prop/dyy_bb
/canmo/prop/dyy_o1o1
/canmo/prop/dyy_o1v1
/canmo/prop/dyy_v1v1
/canmo/prop/dz_bb
/canmo/prop/dz_o1o1
/canmo/prop/dz_o1v1
/canmo/prop/dz_v1v1
/canmo/prop/dzz_bb
/canmo/prop/dzz_o1o1
/canmo/prop/dzz_o1v1
/canmo/prop/dzz_v1v1
/canmo/prop/vpc_bb
/canmo/spaces/b
/canmo/spaces/f
/canmo/spaces/o1
/canmo/spaces/o1_a
/canmo/spaces/o1_b
/canmo/spaces/s
/canmo/spaces/v1
/canmo/spaces/v1_a
/canmo/spaces/v1_b
/canmo/symmetry/ab_o1
/canmo/symmetry/ab_v1
/canmo/symmetry/ib_o1
/canmo/symmetry/ib_v1
/canmo/symmetry/irreps_f
/canmo/symmetry/pg/irreps
/canmo/symmetry/pg/name
/canmo_srt/hf/c_fb
/canmo_srt/hf/nossa
/canmo_srt/hf/nossb
/canmo_srt/hf/nvssa
/canmo_srt/hf/nvssb
/canmo_srt/hf/oe_f
/canmo_srt/hf/oemap_f
/canmo_srt/hf/omap_f
/canmo_srt/hf/unrestricted
/canmo_srt/spaces/b
/canmo_srt/spaces/f
/canmo_srt/spaces/s
/canmo_srt/symmetry/irreps_f
/canmo_srt/symmetry/pg/irreps
/canmo_srt/symmetry/pg/name
/canmo_unsrt/hf/c_fb
/canmo_unsrt/hf/nossa
/canmo_unsrt/hf/nossb
/canmo_unsrt/hf/nvssa
/canmo_unsrt/hf/nvssb
/canmo_unsrt/hf/oe_f
/canmo_unsrt/hf/oemap_f
/canmo_unsrt/hf/omap_f
/canmo_unsrt/hf/unrestricted
/canmo_unsrt/spaces/b
/canmo_unsrt/spaces/f
/canmo_unsrt/spaces/s
/canmo_unsrt/symmetry/irreps_f
/canmo_unsrt/symmetry/pg/irreps
/canmo_unsrt/symmetry/pg/name
/qcimport/1/hf/c_fb
/qcimport/1/hf/oe_f
/qcimport/1/hf/omap_f
/qcimport/1/hf/unrestricted
/qcimport/1/spaces/b
/qcimport/1/spaces/f
/qcimport/1/spaces/s
/qcimport/1/symmetry/irreps_f
/qcimport/1/symmetry/pg/irreps
/qcimport/1/symmetry/pg/name
/qcimport/2/hf/c_fb
/qcimport/2/hf/nossa
/qcimport/2/hf/nossb
/qcimport/2/hf/nvssa
/qcimport/2/hf/nvssb
/qcimport/2/hf/oe_f
/qcimport/2/hf/omap_f
/qcimport/2/hf/unrestricted
/qcimport/2/spaces/b
/qcimport/2/spaces/f
/qcimport/2/spaces/s
/qcimport/2/symmetry/irreps_f
/qcimport/2/symmetry/pg/irreps
/qcimport/2/symmetry/pg/name
/qcimport/3/hf/c_fb
/qcimport/3/hf/nossa
/qcimport/3/hf/nossb
/qcimport/3/hf/nvssa
/qcimport/3/hf/nvssb
/qcimport/3/hf/oe_f
/qcimport/3/hf/oemap_f
/qcimport/3/hf/omap_f
/qcimport/3/hf/unrestricted
/qcimport/3/spaces/b
/qcimport/3/spaces/f
/qcimport/3/spaces/s
/qcimport/3/symmetry/irreps_f
/qcimport/3/symmetry/pg/irreps
/qcimport/3/symmetry/pg/name
/rawmo/ao/dx_bb
/rawmo/ao/dxx_bb
/rawmo/ao/dy_bb
/rawmo/ao/dyy_bb
/rawmo/ao/dz_bb
/rawmo/ao/dzz_bb
/rawmo/ao/fa_bb
/rawmo/ao/fb_bb
/rawmo/ao/ke_bb
/rawmo/ao/s_bb
/rawmo/hf/c_fb
/rawmo/hf/c_o1b
/rawmo/hf/c_v1b
/rawmo/hf/ej
/rawmo/hf/eka
/rawmo/hf/ekb
/rawmo/hf/energy
/rawmo/hf/f_o1o1
/rawmo/hf/f_o1v1
/rawmo/hf/f_v1v1
/rawmo/hf/fd_o1
/rawmo/hf/fd_v1
/rawmo/hf/frozen_core_energy
/rawmo/hf/ke_o1o1
/rawmo/hf/ke_o1v1
/rawmo/hf/ke_v1v1
/rawmo/hf/kin_energy
/rawmo/hf/nossa
/rawmo/hf/nossb
/rawmo/hf/nuc_attr_energy
/rawmo/hf/nuc_energy
/rawmo/hf/nvssa
/rawmo/hf/nvssb
/rawmo/hf/oe_f
/rawmo/hf/oe_o1
/rawmo/hf/oe_v1
/rawmo/hf/oemap_f
/rawmo/hf/omap_f
/rawmo/hf/omap_o1
/rawmo/hf/omap_v1
/rawmo/hf/total_energy
/rawmo/hf/unrestricted
/rawmo/prop/dx_bb
/rawmo/prop/dx_o1o1
/rawmo/prop/dx_o1v1
/rawmo/prop/dx_v1v1
/rawmo/prop/dxx_bb
/rawmo/prop/dxx_o1o1
/rawmo/prop/dxx_o1v1
/rawmo/prop/dxx_v1v1
/rawmo/prop/dy_bb
/rawmo/prop/dy_o1o1
/rawmo/prop/dy_o1v1
/rawmo/prop/dy_v1v1
/rawmo/prop/dyy_bb
/rawmo/prop/dyy_o1o1
/rawmo/prop/dyy_o1v1
/rawmo/prop/dyy_v1v1
/rawmo/prop/dz_bb
/rawmo/prop/dz_o1o1
/rawmo/prop/dz_o1v1
/rawmo/prop/dz_v1v1
/rawmo/prop/dzz_bb
/rawmo/prop/dzz_o1o1
/rawmo/prop/dzz_o1v1
/rawmo/prop/dzz_v1v1
/rawmo/prop/vpc_bb
/rawmo/spaces/b
/rawmo/spaces/f
/rawmo/spaces/o1
/rawmo/spaces/o1_a
/rawmo/spaces/o1_b
/rawmo/spaces/s
/rawmo/spaces/v1
/rawmo/spaces/v1_a
/rawmo/spaces/v1_b
/rawmo/symmetry/ab_o1
/rawmo/symmetry/ab_v1
/rawmo/symmetry/ib_o1
/rawmo/symmetry/ib_v1
/rawmo/symmetry/irreps_f
/rawmo/symmetry/pg/irreps
/rawmo/symmetry/pg/name
 ------------------------------------------------------------------------------

 Total ccman2 time:   CPU 41.76 s  wall 41.68 s

embedman END 
 JobOver = TRUE
Archival summary:
1\1\odysseus\SP\ProcedureUnspecified\6-31G*\12h3\ben\MonJun210:04:512014MonJun210:04:512014\0\\#,ProcedureUnspecified,6-31G*,\\0,1\O\H,1,0.989946\H,1,0.990002,2,104.477\Gh,2,2.63568,1,125.387,3,-85.7308,0\Gh,4,0.990028,2,82.6876,1,134.861,0\Gh,5,0.990225,4,104.554,2,152.764,0\\\@

 Total job time:  45.62s(wall), 45.60s(cpu) 
 Mon Jun  2 10:04:51 2014

        *************************************************************
        *                                                           *
        *  Thank you very much for using Q-Chem.  Have a nice day.  *
        *                                                           *
        *************************************************************


*** MISSION COMPLETED -- STARFLEET OUT ***

 
User input: 2 of 2 
 
                  Welcome to Q-Chem
     A Quantum Leap Into The Future Of Chemistry


 Q-Chem 4.2, Q-Chem, Inc., Pleasanton, CA (2014).

 Y. Shao,  Z. Gan,  E. Epifanovsky,  A. T. B. Gilbert,  M. Wormit,  
 J. Kussmann,  A. W. Lange,  A. Behn,  J. Deng,  X. Feng,  D. Ghosh,  
 M. Goldey,  P. R. Horn,  L. D. Jacobson,  I. Kaliman,  R. Z. Khaliullin,  
 T. Kus,  A. Landau,  J. Liu,  E. I. Proynov,  Y. M. Rhee,  R. M. Richard,  
 M. A. Rohrdanz,  R. P. Steele,  E. J. Sundstrom,  H. L. Woodcock III,  
 P. M. Zimmerman,  D. Zuev,  B. Albrecht,  E. Alguire,  B. Austin,  
 G. J. O. Beran,  Y. A. Bernard,  E. Berquist,  K. Brandhorst,  
 K. B. Bravaya,  S. T. Brown,  D. Casanova,  C.-M. Chang,  Y. Chen,  
 S. H. Chien,  K. D. Closser,  D. L. Crittenden,  M. Diedenhofen,  
 R. A. DiStasio Jr.,  H. Do,  A. D. Dutoi,  R. G. Edgar,  S. Fatehi,  
 L. Fusti-Molnar,  A. Ghysels,  A. Golubeva-Zadorozhnaya,  J. Gomes,  
 M. W. D. Hanson-Heine,  P. H. P. Harbach,  A. W. Hauser,  E. G. Hohenstein,  
 Z. C. Holden,  T.-C. Jagau,  H. Ji,  B. Kaduk,  K. Khistyaev,  Jaehoon Kim,  
 Jihan Kim,  R. A. King,  P. Klunzinger,  D. Kosenkov,  T. Kowalczyk,  
 C. M. Krauter,  K. U. Lao,  A. Laurent,  K. V. Lawler,  S. V. Levchenko,  
 C. Y. Lin,  F. Liu,  E. Livshits,  R. C. Lochan,  A. Luenser,  P. Manohar,  
 S. F. Manzer,  S.-P. Mao,  N. Mardirossian,  A. V. Marenich,  S. A. Maurer,  
 N. J. Mayhall,  C. M. Oana,  R. Olivares-Amaya,  D. P. O'Neill,  
 J. A. Parkhill,  T. M. Perrine,  R. Peverati,  P. A. Pieniazek,  A. Prociuk,  
 D. R. Rehn,  E. Rosta,  N. J. Russ,  N. Sergueev,  S. M. Sharada,  
 S. Sharma,  D. W. Small,  A. Sodt,  T. Stein,  D. Stuck,  Y.-C. Su,  
 A. J. W. Thom,  T. Tsuchimochi,  L. Vogt,  O. Vydrov,  T. Wang,  
 M. A. Watson,  J. Wenzel,  A. White,  C. F. Williams,  V. Vanovschi,  
 S. Yeganeh,  S. R. Yost,  Z.-Q. You,  I. Y. Zhang,  X. Zhang,  Y. Zhao,  
 B. R. Brooks,  G. K. L. Chan,  D. M. Chipman,  C. J. Cramer,  
 W. A. Goddard III,  M. S. Gordon,  W. J. Hehre,  A. Klamt,  
 H. F. Schaefer III,  M. W. Schmidt,  C. D. Sherrill,  D. G. Truhlar,  
 A. Warshel,  X. Xu,  A. Aspuru-Guzik,  R. Baer,  A. T. Bell,  N. A. Besley,  
 J.-D. Chai,  A. Dreuw,  B. D. Dunietz,  T. R. Furlani,  S. R. Gwaltney,  
 C.-P. Hsu,  Y. Jung,  J. Kong,  D. S. Lambrecht,  W. Liang,  C. Ochsenfeld,  
 V. A. Rassolov,  L. V. Slipchenko,  J. E. Subotnik,  T. Van Voorhis,  
 J. M. Herbert,  A. I. Krylov,  P. M. W. Gill,  M. Head-Gordon

 Contributors to earlier versions of Q-Chem not listed above: 
 R. D. Adamson,  J. Baker,  E. F. C. Byrd,  A. K. Chakraborty,  C.-L. Cheng,  
 H. Dachsel,  R. J. Doerksen,  G. Hawkins,  A. Heyden,  S. Hirata,  
 G. Kedziora,  F. J. Keil,  C. Kelley,  P. P. Korambath,  W. Kurlancheek,  
 A. M. Lee,  M. S. Lee,  D. Liotard,  I. Lotan,  P. E. Maslen,  N. Nair,  
 D. Neuhauser,  R. Olson,  B. Peters,  J. Ritchie,  N. E. Schultz,  
 N. Shenvi,  A. C. Simmonett,  K. S. Thanthiriwatte,  Q. Wu,  W. Zhang

 Q-Chem 4.2.0 for Intel X86 EM64T Linux

 Parts of Q-Chem use Armadillo 4.100.2 (Dirt Cruiser).
 http://arma.sourceforge.net/

 Q-Chem begins on Mon Jun  2 10:04:51 2014  

Host: 
0

     Scratch files written to /tmp/ben/qchem/qchem29885//
 May2714 |home|ben|opt|apps|qchem|bja_2|libmdc|qstr_info.C -1
 Using version located at /home/ben/opt/apps/qchem/bja_2/bin/qchem


Total Memory Limit in MB = 2000
Mega-Array Size in MB = 62
Finally everything over in PARseQInput

--------------------------------------------------------------
User input:
--------------------------------------------------------------

$molecule
0 1
--
0 1
O        2.40989        2.65835       -0.41025
H        3.37713        2.77773       -0.23492
H        2.05593        3.57951       -0.48982
--
0 1
O       -1.06894        2.58476       -0.04887
H       -0.16971        2.43518        0.33714
H       -1.12297        1.94757       -0.80463
$end

$rem
BASIS           6-31G*
EXCHANGE        HF
CORRELATION     CCSD(T)
SCF_ALGORITHM   DIIS
incfock         0
CCMAN2          true
MAXSCF          100
symmetry        false
sym_ignore      true
cc_symmetry     false
PURCAR          222
$end
--------------------------------------------------------------
 ----------------------------------------------------------------
             Standard Nuclear Orientation (Angstroms)
    I     Atom           X                Y                Z
 ----------------------------------------------------------------
    1      O       2.4098900000     2.6583500000    -0.4102500000
    2      H       3.3771300000     2.7777300000    -0.2349200000
    3      H       2.0559300000     3.5795100000    -0.4898200000
    4      O      -1.0689400000     2.5847600000    -0.0488700000
    5      H      -0.1697100000     2.4351800000     0.3371400000
    6      H      -1.1229700000     1.9475700000    -0.8046300000
 ----------------------------------------------------------------
 Nuclear Repulsion Energy =    33.0389764839 hartrees
 There are       10 alpha and       10 beta electrons

 Q-Chem warning in module /home/ben/opt/apps/qchem/bja_2/forms1/BasisType.C, line 1231:

 You are not using the predefined 5D/6D in this basis set.

 Requested basis set is 6-31G(d)
 There are 16 shells and 38 basis functions
Total memory of 1801MB is distributed as follows: 
   QALLOC including MEM_STATIC uses 1301MB
   MEM_STATIC is set to 301MB
   CCMAN JOB total memory use is  1500MB
Warning: actual memory use might exceed 1801MB

Total QAlloc Memory Limit   1301 MB
Mega-Array Size       295 MB
MEM_STATIC part       301 MB

finished with qalloc call

                       Distance Matrix (Angstroms)
             O (  1)   H (  2)   H (  3)   O (  4)   H (  5)
   H (  2)  0.990225
   H (  3)  0.990028  1.566332
   O (  4)  3.498324  4.454143  3.308894
   H (  5)  2.694946  3.608970  2.635683  0.989946
   H (  6)  3.625168  4.611359  3.587163  0.990002  1.565282
 
 Job number = 2, Threshold = 1.00E-14
Integral type ranges set in mkLRange.C for JobNum: 2  <1-21|1-21>
Symmetry turned off temporarily
 Using the largest function pair in Schwarz integrals
Total number of integrals generated =           12437
Symmetry turned back on
 A cutoff of  1.0D-14 yielded    132 shell pairs
 There are       785 function pairs
 Job number = 11, Threshold = 1.00E-14
Integral type ranges set in mkLRange.C for JobNum: 11  <1-21|22-22>
Total number of integrals generated =            4710
 Smallest overlap matrix eigenvalue = 2.21E-02
 Multipole matrices computed through 2nd order

  Scale SEOQF with 1.000000e-01/1.000000e-01/1.000000e+00

 Standard Electronic Orientation quadrupole field applied
 Nucleus-field energy     =     0.0000000100 hartrees
 Guess from superposition of atomic densities
 Warning:  Energy on first SCF cycle will be non-variational
scfman initvdwdat 
 A restricted Hartree-Fock SCF calculation will be
 performed using Pulay DIIS extrapolation
 SCF converges when DIIS error is below 1.0E-08
Finding J and K together
 Job number = 22, Threshold = 1.00E-14
Integral type ranges set in mkLRange.C for JobNum: 22  <1-21|1-21>
Storing 589.35% of integrals
Total number of integrals generated =          304362
*** EV =  -424.4958188767 ***
*** E1 - EV =   151.4306246738 ***
*** ET =   151.4306246808 ***
*** *********** ***
*** ENuclear = 33.038976 ***
*** E1 = -273.065194 ***
*** EJ = 105.562183 ***
*** EX = 0.000000 ***
*** EC = 0.000000 ***
*** *********** ***
*** ETot = -151.698571 ***
Fock build time:  0.11 s (CPU) 0.11 s (wall)
DIIS Errors:  Max 9.34E-01 RMS 1.17E-01

Current DIIS subspace size = 1
REM_GRID_RESTART_DIIS = 0

 ---------------------------------------
  Cycle       Energy         DIIS Error
 ---------------------------------------
    1    -151.6985705356      1.17E-01  00000
Finding J and K together
 Job number = 22, Threshold = 1.00E-14
Integral type ranges set in mkLRange.C for JobNum: 22  <1-21|1-21>
Storing 589.35% of integrals
Reusing in-core integrals buffer for job 22
*** EV =  -430.2550739903 ***
*** E1 - EV =   152.9375150942 ***
*** ET =   152.9375151016 ***
*** *********** ***
*** ENuclear = 33.038976 ***
*** E1 = -277.317559 ***
*** EJ = 110.379969 ***
*** EX = 0.000000 ***
*** EC = 0.000000 ***
*** *********** ***
*** ETot = -151.952294 ***
Fock build time:  0.04 s (CPU) 0.04 s (wall)
DIIS Errors:  Max 1.39E-01 RMS 2.09E-02

Current DIIS subspace size = 2
REM_GRID_RESTART_DIIS = 0

    2    -151.9522937562      2.09E-02  00000
Finding J and K together
 Job number = 22, Threshold = 1.00E-14
Integral type ranges set in mkLRange.C for JobNum: 22  <1-21|1-21>
Storing 589.35% of integrals
Reusing in-core integrals buffer for job 22
*** EV =  -424.4417383492 ***
*** E1 - EV =   150.1195584882 ***
*** ET =   150.1195584955 ***
*** *********** ***
*** ENuclear = 33.038976 ***
*** E1 = -274.322180 ***
*** EJ = 106.949457 ***
*** EX = 0.000000 ***
*** EC = 0.000000 ***
*** *********** ***
*** ETot = -152.004451 ***
Fock build time:  0.04 s (CPU) 0.04 s (wall)
DIIS Errors:  Max 1.11E-01 RMS 1.10E-02

Current DIIS subspace size = 3
REM_GRID_RESTART_DIIS = 0

    3    -152.0044511580      1.10E-02  00000
Finding J and K together
 Job number = 22, Threshold = 1.00E-14
Integral type ranges set in mkLRange.C for JobNum: 22  <1-21|1-21>
Storing 589.35% of integrals
Reusing in-core integrals buffer for job 22
*** EV =  -427.0058302180 ***
*** E1 - EV =   151.4188923852 ***
*** ET =   151.4188923926 ***
*** *********** ***
*** ENuclear = 33.038976 ***
*** E1 = -275.586938 ***
*** EJ = 108.372097 ***
*** EX = 0.000000 ***
*** EC = 0.000000 ***
*** *********** ***
*** ETot = -152.019229 ***
Fock build time:  0.04 s (CPU) 0.04 s (wall)
DIIS Errors:  Max 9.29E-03 RMS 1.24E-03

Current DIIS subspace size = 4
REM_GRID_RESTART_DIIS = 0

    4    -152.0192291417      1.24E-03  00000
Finding J and K together
 Job number = 22, Threshold = 1.00E-14
Integral type ranges set in mkLRange.C for JobNum: 22  <1-21|1-21>
Storing 589.35% of integrals
Reusing in-core integrals buffer for job 22
*** EV =  -426.8648866123 ***
*** E1 - EV =   151.3634256423 ***
*** ET =   151.3634256497 ***
*** *********** ***
*** ENuclear = 33.038976 ***
*** E1 = -275.501461 ***
*** EJ = 108.278829 ***
*** EX = 0.000000 ***
*** EC = 0.000000 ***
*** *********** ***
*** ETot = -152.019589 ***
Fock build time:  0.04 s (CPU) 0.04 s (wall)
DIIS Errors:  Max 3.75E-03 RMS 3.14E-04

Current DIIS subspace size = 5
REM_GRID_RESTART_DIIS = 0

    5    -152.0195894249      3.14E-04  00000
Finding J and K together
 Job number = 22, Threshold = 1.00E-14
Integral type ranges set in mkLRange.C for JobNum: 22  <1-21|1-21>
Storing 589.35% of integrals
Reusing in-core integrals buffer for job 22
*** EV =  -426.8939225084 ***
*** E1 - EV =   151.3838880477 ***
*** ET =   151.3838880551 ***
*** *********** ***
*** ENuclear = 33.038976 ***
*** E1 = -275.510034 ***
*** EJ = 108.289811 ***
*** EX = 0.000000 ***
*** EC = 0.000000 ***
*** *********** ***
*** ETot = -152.019619 ***
Fock build time:  0.04 s (CPU) 0.04 s (wall)
DIIS Errors:  Max 6.20E-04 RMS 5.58E-05

Current DIIS subspace size = 6
REM_GRID_RESTART_DIIS = 0

    6    -152.0196187629      5.58E-05  00000
Finding J and K together
 Job number = 22, Threshold = 1.00E-14
Integral type ranges set in mkLRange.C for JobNum: 22  <1-21|1-21>
Storing 589.35% of integrals
Reusing in-core integrals buffer for job 22
*** EV =  -426.8957970792 ***
*** E1 - EV =   151.3857790599 ***
*** ET =   151.3857790672 ***
*** *********** ***
*** ENuclear = 33.038976 ***
*** E1 = -275.510018 ***
*** EJ = 108.289899 ***
*** EX = 0.000000 ***
*** EC = 0.000000 ***
*** *********** ***
*** ETot = -152.019620 ***
Fock build time:  0.04 s (CPU) 0.04 s (wall)
DIIS Errors:  Max 1.66E-04 RMS 1.14E-05

Current DIIS subspace size = 7
REM_GRID_RESTART_DIIS = 0

    7    -152.0196199167      1.14E-05  00000
Finding J and K together
 Job number = 22, Threshold = 1.00E-14
Integral type ranges set in mkLRange.C for JobNum: 22  <1-21|1-21>
Storing 589.35% of integrals
Reusing in-core integrals buffer for job 22
*** EV =  -426.8959488035 ***
*** E1 - EV =   151.3859325208 ***
*** ET =   151.3859325282 ***
*** *********** ***
*** ENuclear = 33.038976 ***
*** E1 = -275.510016 ***
*** EJ = 108.289903 ***
*** EX = 0.000000 ***
*** EC = 0.000000 ***
*** *********** ***
*** ETot = -152.019620 ***
Fock build time:  0.04 s (CPU) 0.04 s (wall)
DIIS Errors:  Max 4.24E-05 RMS 4.36E-06

Current DIIS subspace size = 8
REM_GRID_RESTART_DIIS = 0

    8    -152.0196199429      4.36E-06  00000
Finding J and K together
 Job number = 22, Threshold = 1.00E-14
Integral type ranges set in mkLRange.C for JobNum: 22  <1-21|1-21>
Storing 589.35% of integrals
Reusing in-core integrals buffer for job 22
*** EV =  -426.8959448327 ***
*** E1 - EV =   151.3859548519 ***
*** ET =   151.3859548593 ***
*** *********** ***
*** ENuclear = 33.038976 ***
*** E1 = -275.509990 ***
*** EJ = 108.289876 ***
*** EX = 0.000000 ***
*** EC = 0.000000 ***
*** *********** ***
*** ETot = -152.019620 ***
Fock build time:  0.04 s (CPU) 0.04 s (wall)
DIIS Errors:  Max 1.83E-06 RMS 3.16E-07

Current DIIS subspace size = 9
REM_GRID_RESTART_DIIS = 0

    9    -152.0196199461      3.16E-07  00000
Finding J and K together
 Job number = 22, Threshold = 1.00E-14
Integral type ranges set in mkLRange.C for JobNum: 22  <1-21|1-21>
Storing 589.35% of integrals
Reusing in-core integrals buffer for job 22
*** EV =  -426.8959283338 ***
*** E1 - EV =   151.3859422963 ***
*** ET =   151.3859423037 ***
*** *********** ***
*** ENuclear = 33.038976 ***
*** E1 = -275.509986 ***
*** EJ = 108.289871 ***
*** EX = 0.000000 ***
*** EC = 0.000000 ***
*** *********** ***
*** ETot = -152.019620 ***
Fock build time:  0.04 s (CPU) 0.04 s (wall)
DIIS Errors:  Max 4.85E-07 RMS 7.45E-08
 Singularity in Pulay DIIS matrix

Current DIIS subspace size = 10
REM_GRID_RESTART_DIIS = 0

NextCycle: DoReset = 1
   10    -152.0196199461      7.45E-08  00000
Finding J and K together
 Job number = 22, Threshold = 1.00E-14
Integral type ranges set in mkLRange.C for JobNum: 22  <1-21|1-21>
Storing 589.35% of integrals
Reusing in-core integrals buffer for job 22
*** EV =  -426.8959211308 ***
*** E1 - EV =   151.3859377659 ***
*** ET =   151.3859377732 ***
*** *********** ***
*** ENuclear = 33.038976 ***
*** E1 = -275.509983 ***
*** EJ = 108.289868 ***
*** EX = 0.000000 ***
*** EC = 0.000000 ***
*** *********** ***
*** ETot = -152.019620 ***
Fock build time:  0.05 s (CPU) 0.05 s (wall)
DIIS Errors:  Max 2.42E-07 RMS 3.40E-08

Current DIIS subspace size = 2
REM_GRID_RESTART_DIIS = 0

   11    -152.0196199461      3.40E-08  00000
Finding J and K together
 Job number = 22, Threshold = 1.00E-14
Integral type ranges set in mkLRange.C for JobNum: 22  <1-21|1-21>
Storing 589.35% of integrals
Reusing in-core integrals buffer for job 22
*** EV =  -426.8959260516 ***
*** E1 - EV =   151.3859397689 ***
*** ET =   151.3859397763 ***
*** *********** ***
*** ENuclear = 33.038976 ***
*** E1 = -275.509986 ***
*** EJ = 108.289872 ***
*** EX = 0.000000 ***
*** EC = 0.000000 ***
*** *********** ***
*** ETot = -152.019620 ***
Fock build time:  0.04 s (CPU) 0.04 s (wall)
DIIS Errors:  Max 1.65E-07 RMS 1.71E-08

Current DIIS subspace size = 3
REM_GRID_RESTART_DIIS = 0

   12    -152.0196199461      1.71E-08  00000
Finding J and K together
 Job number = 22, Threshold = 1.00E-14
Integral type ranges set in mkLRange.C for JobNum: 22  <1-21|1-21>
Storing 589.35% of integrals
Reusing in-core integrals buffer for job 22
*** EV =  -426.8959228362 ***
*** E1 - EV =   151.3859379788 ***
*** ET =   151.3859379862 ***
*** *********** ***
*** ENuclear = 33.038976 ***
*** E1 = -275.509985 ***
*** EJ = 108.289870 ***
*** EX = 0.000000 ***
*** EC = 0.000000 ***
*** *********** ***
*** ETot = -152.019620 ***
Fock build time:  0.04 s (CPU) 0.04 s (wall)
DIIS Errors:  Max 2.62E-08 RMS 2.54E-09
 Singularity in Pulay DIIS matrix

Current DIIS subspace size = 4
REM_GRID_RESTART_DIIS = 0

NextCycle: DoReset = 1
   13    -152.0196199461      2.54E-09  00000 Convergence criterion met
 ---------------------------------------
 SCF time:  CPU 0.58 s  wall 0.59 s
 SCF   energy in the final basis set = -152.0196199461
 Total energy in the final basis set = -152.0196199461


 ------------------------------------------------------------------------------
 ccman2 parameters structure

ccman1 = 0
ccman2 = 1
ccman2.capable = 1
ccman2.cholesky_ccsd = 0
ccman2.cholesky_eomdip_ccsd = 0
ccman2.cholesky_eomea_ccsd = 0
ccman2.cholesky_eomee_ccsd = 0
ccman2.cholesky_eomip_ccsd = 0
ccman2.cholesky_eomsf_ccsd = 0
ccman2.complex_ccman = 0
ccman2.cs_ccsd = 0
ccman2.cs_hf = 0
ccman2.memory = 1500
ccman2.mp2 = 1
ccman2.ri_ccsd = 0
ccman2.ri_eomdip_ccsd = 0
ccman2.ri_eomea_ccsd = 0
ccman2.ri_eomee_ccsd = 0
ccman2.ri_eomip_ccsd = 0
ccman2.ri_eomsf_ccsd = 0
ccman2.threads = 1
ccman2.aoints = 0
ccman2.canmo = 1
ccman2.canmo.active_space = 0
ccman2.canmo.blksz = 16
ccman2.canmo.eri = motran
ccman2.canmo.full_space = 1
ccman2.canmo.thresh = 1e-07
ccman2.canmo.unrestricted = 0
ccman2.canmo.motran.no = 1
ccman2.canmo.motran.nv = 1
ccman2.canmo.motran.only_oovv = 0
ccman2.canmo.sizes.nalpha = 10
ccman2.canmo.sizes.nbasis = 38
ccman2.canmo.sizes.nbeta = 10
ccman2.canmo.sizes.nlinbasis = 38
ccman2.canmo.sizes.norbs_per_block = 16
ccman2.canmo.sizes.nreordermos = 0
ccman2.canmo.sizes.ns2 = 785
ccman2.canmo.sizes.ns2car = 785
ccman2.canmo.sizes.frozen.occ = 0
ccman2.canmo.sizes.frozen.virt = 0
ccman2.canmo.sizes.restr.occ = 0
ccman2.canmo.sizes.restr.virt = 0
ccman2.ccd = 0
ccman2.ccsd = 1
ccman2.ccsd.i = 0
ccman2.ccsd.l = 0
ccman2.ccsd.pdt = 0
ccman2.ccsd.pft = 0
ccman2.ccsd.print = 1
ccman2.ccsd.print.nmin = 4
ccman2.ccsd.print.rthresh1 = 0.1
ccman2.ccsd.print.rthresh2 = 0.0001
ccman2.ccsd.pt = 1
ccman2.ccsd.pt.unrestricted = 0
ccman2.ccsd.t = 1
ccman2.ccsd.t.solver = diis
ccman2.ccsd.t.diis.econv = 1e-06
ccman2.ccsd.t.diis.freq = 1
ccman2.ccsd.t.diis.max_overlap = 1
ccman2.ccsd.t.diis.maxiter = 100
ccman2.ccsd.t.diis.min_overlap = 1e-11
ccman2.ccsd.t.diis.restart = 0
ccman2.ccsd.t.diis.size = 7
ccman2.ccsd.t.diis.start = 3
ccman2.ccsd.t.diis.tconv = 0.0001
ccman2.eomdip_ccsd = 0
ccman2.eomea_ccsd = 0
ccman2.eomee_ccsd = 0
ccman2.eomip_ccsd = 0
ccman2.eomsf_ccsd = 0
ccman2.fno = 0
ccman2.gradient = 0
ccman2.gradient_fdiff = 1
ccman2.gradient_fdiff.nslots = 1
ccman2.gradient_fdiff.1.no = 1
ccman2.gradient_fdiff.1.nv = 1
ccman2.gradient_fdiff.1.path = ccsd
ccman2.gradient_fdiff.1.slot = opt
ccman2.hf = 1
ccman2.hf.active_space = 0
ccman2.hf.eri = none
ccman2.hf.full_space = 1
ccman2.hf.symmetry = 0
ccman2.hf.unrestricted = 0
ccman2.hf.sizes.nalpha = 10
ccman2.hf.sizes.nbasis = 38
ccman2.hf.sizes.nbeta = 10
ccman2.hf.sizes.nlinbasis = 38
ccman2.hf.sizes.norbs_per_block = 16
ccman2.hf.sizes.nreordermos = 0
ccman2.hf.sizes.ns2 = 785
ccman2.hf.sizes.ns2car = 785
ccman2.hf.sizes.frozen.occ = 0
ccman2.hf.sizes.frozen.virt = 0
ccman2.hf.sizes.restr.occ = 0
ccman2.hf.sizes.restr.virt = 0
ccman2.mp3 = 0
ccman2.qcimport.active_space.blksz = 16
ccman2.qcimport.mos.blksz = 16
ccman2.qcimport.mos.scf_thresh = 1e-08
ccman2.qcimport.oe.cap_matrix = 0
ccman2.qcimport.oe.dx = 1
ccman2.qcimport.oe.dxx = 1
ccman2.qcimport.oe.fock = 1
ccman2.qcimport.oe.ke = 1
ccman2.qcimport.oe.nuce = 1
ccman2.qcimport.oe.overlap = 1
ccman2.qcisd = 0
ccman2.rpa = 0
ccman2.rpax2 = 0
sizes.nalpha = 10
sizes.nbasis = 38
sizes.nbeta = 10
sizes.nlinbasis = 38
sizes.norbs_per_block = 16
sizes.nreordermos = 0
sizes.ns2 = 785
sizes.ns2car = 785
sizes.frozen.occ = 0
sizes.frozen.virt = 0
sizes.restr.occ = 0
sizes.restr.virt = 0

 ------------------------------------------------------------------------------



 ------------------------------------------------------------------------------

   CCMAN2: suite of methods based on coupled cluster
           and equation of motion theories.

   Components:
   * libvmm-1.2-release
     by Evgeny Epifanovsky, Ilya Kaliman.
   * libtensor-2.3-release
     by Evgeny Epifanovsky, Michael Wormit, Dmitry Zuev, Sam Manzer.
   * libcc-2.3-release
     by Evgeny Epifanovsky, Arik Landau, Tomasz Kus, Kirill Khistyaev, 
        Dmitry Zuev, Prashant Manohar, Xintian Feng, Anna Krylov, 
        Matthew Goldey, Alec White, Thomas Jagau.

   CCMAN original authors:
   Anna I. Krylov, C. David Sherrill, Steven R. Gwaltney,
   Edward F. C. Byrd (2000)
   Sergey V. Levchenko, Lyudmila V. Slipchenko, Tao Wang,
   Ana-Maria C. Cristian (2003)
   Piotr A. Pieniazek, C. Melania Oana, Evgeny Epifanovsky (2007)
   Prashant Manohar (2009)

 ------------------------------------------------------------------------------


 Calculation will run on 1 core with 1500MB of RAM.


 Occupation and symmetry of molecular orbitals

 Point group: C1 (1 irreducible representation).

                           A     All 
 -------------------------------------
 All molecular orbitals:
  - Alpha                  38    38  
  - Beta                   38    38  
 -------------------------------------
 Alpha orbitals:
  - Frozen occupied        0     0   
  - Active occupied        10    10  
  - Active virtual         28    28  
  - Frozen virtual         0     0   
 -------------------------------------
 Beta orbitals:
  - Frozen occupied        0     0   
  - Active occupied        10    10  
  - Active virtual         28    28  
  - Frozen virtual         0     0   
 -------------------------------------

 Import integrals:   CPU 0.00 s  wall 0.00 s

 
 Entering first-index batching code with I1Strt =    1 batch size =   38
 Job number = 52, Threshold = 1.00E-14
Integral type ranges set in mkLRange.C for JobNum: 52  <1-21|1-21>
Symmetry turned off temporarily
Storing 589.35% of integrals
Total number of integrals generated =          616225
Symmetry turned back on
 Import integrals:   CPU 0.56 s  wall 0.56 s

 MP2 amplitudes:   CPU 0.01 s  wall 0.01 s

           CCSD T amplitudes will be solved using DIIS.
           Estimated memory + disk requirements 72 MB +/-

           Start     Size      MaxIter   EConv     TConv     
           3         7         100       1.0e-06   0.00010   
 ------------------------------------------------------------------------------
           Energy (a.u.)   Ediff      Tdiff       Comment
 ------------------------------------------------------------------------------
          -152.40281878                           
     1    -152.41089964   8.08e-03   5.49e-01     
     2    -152.41760368   6.70e-03   5.77e-02     
     3    -152.41923648   1.63e-03   1.83e-02     
     4    -152.42027058   1.03e-03   9.75e-03     Switched to DIIS steps.
     5    -152.42035268   8.21e-05   1.65e-03     
     6    -152.42035476   2.08e-06   4.82e-04     
     7    -152.42035389   8.65e-07   1.50e-04     
     8    -152.42035397   8.13e-08   6.53e-05     
 ------------------------------------------------------------------------------
          -152.42035397                           CCSD T converged.

 SCF energy                 = -152.01961995
 MP2 energy                 = -152.40281878
 CCSD correlation energy    =   -0.40073403
 CCSD total energy          = -152.42035397
 CCSD(T) correlation energy =   -0.00414329
 CCSD(T) total energy       = -152.42449726

 CCSD  T1^2 = 0.0013  T2^2 = 0.1158.  Leading amplitudes:

 Amplitude    Orbitals with energies
 -0.0074       7 (A) A                   ->    12 (A) A                   
              -0.5817                          0.2365                     
 -0.0074       7 (A) B                   ->    12 (A) B                   
              -0.5817                          0.2365                     
  0.0071       8 (A) A                   ->    11 (A) A                   
              -0.5536                          0.1804                     
  0.0071       8 (A) B                   ->    11 (A) B                   
              -0.5536                          0.1804                     

 Amplitude    Orbitals with energies
 -0.0435       9 (A) A       9 (A) B     ->    19 (A) A      19 (A) B     
              -0.5108       -0.5108            1.1513        1.1513       
  0.0435       9 (A) A       9 (A) B     ->    19 (A) B      19 (A) A     
              -0.5108       -0.5108            1.1513        1.1513       
  0.0435       9 (A) B       9 (A) A     ->    19 (A) A      19 (A) B     
              -0.5108       -0.5108            1.1513        1.1513       
 -0.0435       9 (A) B       9 (A) A     ->    19 (A) B      19 (A) A     
              -0.5108       -0.5108            1.1513        1.1513       

 CCSD calculation:   CPU 69.98 s  wall 70.02 s



 ------------------------------------------------------------------------------
 contents of the context

/canmo/ao/dx_bb
/canmo/ao/dxx_bb
/canmo/ao/dy_bb
/canmo/ao/dyy_bb
/canmo/ao/dz_bb
/canmo/ao/dzz_bb
/canmo/ao/fa_bb
/canmo/ao/fb_bb
/canmo/ao/ke_bb
/canmo/ao/s_bb
/canmo/ccsd/energy
/canmo/ccsd/fz_oo
/canmo/ccsd/fz_vv
/canmo/ccsd/t1
/canmo/ccsd/t2
/canmo/ccsd/t_converged
/canmo/ccsd/total_energy
/canmo/ccsd_pt/energy
/canmo/ccsd_pt/spaces/oi
/canmo/ccsd_pt/spaces/oi_a
/canmo/ccsd_pt/spaces/oi_b
/canmo/ccsd_pt/spaces/oo
/canmo/ccsd_pt/spaces/oo_a
/canmo/ccsd_pt/spaces/oo_b
/canmo/ccsd_pt/spaces/vi
/canmo/ccsd_pt/spaces/vi_a
/canmo/ccsd_pt/spaces/vi_b
/canmo/ccsd_pt/spaces/vo
/canmo/ccsd_pt/spaces/vo_a
/canmo/ccsd_pt/spaces/vo_b
/canmo/ccsd_pt/symmetry/ab_oi
/canmo/ccsd_pt/symmetry/ab_oo
/canmo/ccsd_pt/symmetry/ab_vi
/canmo/ccsd_pt/symmetry/ab_vo
/canmo/ccsd_pt/symmetry/ib_oi
/canmo/ccsd_pt/symmetry/ib_oo
/canmo/ccsd_pt/symmetry/ib_vi
/canmo/ccsd_pt/symmetry/ib_vo
/canmo/ccsd_pt/total_energy
/canmo/hf/c_fb
/canmo/hf/c_o1b
/canmo/hf/c_v1b
/canmo/hf/ej
/canmo/hf/eka
/canmo/hf/ekb
/canmo/hf/energy
/canmo/hf/f_o1o1
/canmo/hf/f_o1v1
/canmo/hf/f_v1v1
/canmo/hf/fd_o1
/canmo/hf/fd_v1
/canmo/hf/frozen_core_energy
/canmo/hf/i_o1o1o1o1
/canmo/hf/i_o1o1o1v1
/canmo/hf/i_o1o1v1v1
/canmo/hf/i_o1v1o1v1
/canmo/hf/i_o1v1v1v1
/canmo/hf/i_v1v1v1v1
/canmo/hf/ke_o1o1
/canmo/hf/ke_o1v1
/canmo/hf/ke_v1v1
/canmo/hf/kin_energy
/canmo/hf/nossa
/canmo/hf/nossb
/canmo/hf/nuc_attr_energy
/canmo/hf/nuc_energy
/canmo/hf/nvssa
/canmo/hf/nvssb
/canmo/hf/oe_f
/canmo/hf/oe_o1
/canmo/hf/oe_v1
/canmo/hf/oemap_f
/canmo/hf/omap_f
/canmo/hf/omap_o1
/canmo/hf/omap_v1
/canmo/hf/total_energy
/canmo/hf/unrestricted
/canmo/mp2/d_ov
/canmo/mp2/energy
/canmo/mp2/t1
/canmo/mp2/t2
/canmo/mp2/total_energy
/canmo/prop/dx_bb
/canmo/prop/dx_o1o1
/canmo/prop/dx_o1v1
/canmo/prop/dx_v1v1
/canmo/prop/dxx_bb
/canmo/prop/dxx_o1o1
/canmo/prop/dxx_o1v1
/canmo/prop/dxx_v1v1
/canmo/prop/dy_bb
/canmo/prop/dy_o1o1
/canmo/prop/dy_o1v1
/canmo/prop/dy_v1v1
/canmo/prop/dyy_bb
/canmo/prop/dyy_o1o1
/canmo/prop/dyy_o1v1
/canmo/prop/dyy_v1v1
/canmo/prop/dz_bb
/canmo/prop/dz_o1o1
/canmo/prop/dz_o1v1
/canmo/prop/dz_v1v1
/canmo/prop/dzz_bb
/canmo/prop/dzz_o1o1
/canmo/prop/dzz_o1v1
/canmo/prop/dzz_v1v1
/canmo/prop/vpc_bb
/canmo/spaces/b
/canmo/spaces/f
/canmo/spaces/o1
/canmo/spaces/o1_a
/canmo/spaces/o1_b
/canmo/spaces/s
/canmo/spaces/v1
/canmo/spaces/v1_a
/canmo/spaces/v1_b
/canmo/symmetry/ab_o1
/canmo/symmetry/ab_v1
/canmo/symmetry/ib_o1
/canmo/symmetry/ib_v1
/canmo/symmetry/irreps_f
/canmo/symmetry/pg/irreps
/canmo/symmetry/pg/name
/canmo_srt/hf/c_fb
/canmo_srt/hf/nossa
/canmo_srt/hf/nossb
/canmo_srt/hf/nvssa
/canmo_srt/hf/nvssb
/canmo_srt/hf/oe_f
/canmo_srt/hf/oemap_f
/canmo_srt/hf/omap_f
/canmo_srt/hf/unrestricted
/canmo_srt/spaces/b
/canmo_srt/spaces/f
/canmo_srt/spaces/s
/canmo_srt/symmetry/irreps_f
/canmo_srt/symmetry/pg/irreps
/canmo_srt/symmetry/pg/name
/canmo_unsrt/hf/c_fb
/canmo_unsrt/hf/nossa
/canmo_unsrt/hf/nossb
/canmo_unsrt/hf/nvssa
/canmo_unsrt/hf/nvssb
/canmo_unsrt/hf/oe_f
/canmo_unsrt/hf/oemap_f
/canmo_unsrt/hf/omap_f
/canmo_unsrt/hf/unrestricted
/canmo_unsrt/spaces/b
/canmo_unsrt/spaces/f
/canmo_unsrt/spaces/s
/canmo_unsrt/symmetry/irreps_f
/canmo_unsrt/symmetry/pg/irreps
/canmo_unsrt/symmetry/pg/name
/qcimport/1/hf/c_fb
/qcimport/1/hf/oe_f
/qcimport/1/hf/omap_f
/qcimport/1/hf/unrestricted
/qcimport/1/spaces/b
/qcimport/1/spaces/f
/qcimport/1/spaces/s
/qcimport/1/symmetry/irreps_f
/qcimport/1/symmetry/pg/irreps
/qcimport/1/symmetry/pg/name
/qcimport/2/hf/c_fb
/qcimport/2/hf/nossa
/qcimport/2/hf/nossb
/qcimport/2/hf/nvssa
/qcimport/2/hf/nvssb
/qcimport/2/hf/oe_f
/qcimport/2/hf/omap_f
/qcimport/2/hf/unrestricted
/qcimport/2/spaces/b
/qcimport/2/spaces/f
/qcimport/2/spaces/s
/qcimport/2/symmetry/irreps_f
/qcimport/2/symmetry/pg/irreps
/qcimport/2/symmetry/pg/name
/qcimport/3/hf/c_fb
/qcimport/3/hf/nossa
/qcimport/3/hf/nossb
/qcimport/3/hf/nvssa
/qcimport/3/hf/nvssb
/qcimport/3/hf/oe_f
/qcimport/3/hf/oemap_f
/qcimport/3/hf/omap_f
/qcimport/3/hf/unrestricted
/qcimport/3/spaces/b
/qcimport/3/spaces/f
/qcimport/3/spaces/s
/qcimport/3/symmetry/irreps_f
/qcimport/3/symmetry/pg/irreps
/qcimport/3/symmetry/pg/name
/rawmo/ao/dx_bb
/rawmo/ao/dxx_bb
/rawmo/ao/dy_bb
/rawmo/ao/dyy_bb
/rawmo/ao/dz_bb
/rawmo/ao/dzz_bb
/rawmo/ao/fa_bb
/rawmo/ao/fb_bb
/rawmo/ao/ke_bb
/rawmo/ao/s_bb
/rawmo/hf/c_fb
/rawmo/hf/c_o1b
/rawmo/hf/c_v1b
/rawmo/hf/ej
/rawmo/hf/eka
/rawmo/hf/ekb
/rawmo/hf/energy
/rawmo/hf/f_o1o1
/rawmo/hf/f_o1v1
/rawmo/hf/f_v1v1
/rawmo/hf/fd_o1
/rawmo/hf/fd_v1
/rawmo/hf/frozen_core_energy
/rawmo/hf/ke_o1o1
/rawmo/hf/ke_o1v1
/rawmo/hf/ke_v1v1
/rawmo/hf/kin_energy
/rawmo/hf/nossa
/rawmo/hf/nossb
/rawmo/hf/nuc_attr_energy
/rawmo/hf/nuc_energy
/rawmo/hf/nvssa
/rawmo/hf/nvssb
/rawmo/hf/oe_f
/rawmo/hf/oe_o1
/rawmo/hf/oe_v1
/rawmo/hf/oemap_f
/rawmo/hf/omap_f
/rawmo/hf/omap_o1
/rawmo/hf/omap_v1
/rawmo/hf/total_energy
/rawmo/hf/unrestricted
/rawmo/prop/dx_bb
/rawmo/prop/dx_o1o1
/rawmo/prop/dx_o1v1
/rawmo/prop/dx_v1v1
/rawmo/prop/dxx_bb
/rawmo/prop/dxx_o1o1
/rawmo/prop/dxx_o1v1
/rawmo/prop/dxx_v1v1
/rawmo/prop/dy_bb
/rawmo/prop/dy_o1o1
/rawmo/prop/dy_o1v1
/rawmo/prop/dy_v1v1
/rawmo/prop/dyy_bb
/rawmo/prop/dyy_o1o1
/rawmo/prop/dyy_o1v1
/rawmo/prop/dyy_v1v1
/rawmo/prop/dz_bb
/rawmo/prop/dz_o1o1
/rawmo/prop/dz_o1v1
/rawmo/prop/dz_v1v1
/rawmo/prop/dzz_bb
/rawmo/prop/dzz_o1o1
/rawmo/prop/dzz_o1v1
/rawmo/prop/dzz_v1v1
/rawmo/prop/vpc_bb
/rawmo/spaces/b
/rawmo/spaces/f
/rawmo/spaces/o1
/rawmo/spaces/o1_a
/rawmo/spaces/o1_b
/rawmo/spaces/s
/rawmo/spaces/v1
/rawmo/spaces/v1_a
/rawmo/spaces/v1_b
/rawmo/symmetry/ab_o1
/rawmo/symmetry/ab_v1
/rawmo/symmetry/ib_o1
/rawmo/symmetry/ib_v1
/rawmo/symmetry/irreps_f
/rawmo/symmetry/pg/irreps
/rawmo/symmetry/pg/name
 ------------------------------------------------------------------------------

 Total ccman2 time:   CPU 72.27 s  wall 72.30 s

Symmetry turned off temporarily
 Analysis of SCF Wavefunction
 
 --------------------------------------------------------------
                    Orbital Energies (a.u.)
 --------------------------------------------------------------
 
 Alpha MOs
 -- Occupied --
-20.582 -20.555  -1.340  -1.314  -0.705  -0.677  -0.582  -0.554
 -0.511  -0.485
 -- Virtual --
  0.180   0.236   0.286   0.325   0.985   1.029   1.079   1.106
  1.151   1.160   1.176   1.226   1.346   1.411   1.426   1.514
  2.012   2.031   2.039   2.052   2.062   2.084   2.567   2.594
  2.886   2.902   3.919   4.022
 --------------------------------------------------------------
 
          Ground-State Mulliken Net Atomic Charges

     Atom                 Charge (a.u.)
  ----------------------------------------
      1 O                    -0.873751
      2 H                     0.439470
      3 H                     0.438906
      4 O                    -0.880777
      5 H                     0.443970
      6 H                     0.432182
  ----------------------------------------
  Sum of atomic charges =     0.000000

 -----------------------------------------------------------------
                    Cartesian Multipole Moments
 -----------------------------------------------------------------
    Charge (ESU x 10^10)
                 0.0000
    Dipole Moment (Debye)
         X       2.8644      Y       0.4826      Z      -0.5118
       Tot       2.9496
    Quadrupole Moments (Debye-Ang)
        XX      -7.2643     XY      13.0177     YY      -8.4752
        XZ       2.1193     YZ      -1.0885     ZZ     -12.6649
    Octopole Moments (Debye-Ang^2)
       XXX      12.3605    XXY     -11.1790    XYY      42.0328
       YYY     -75.7151    XXZ       1.4293    XYZ       2.1478
       YYZ      -0.5924    XZZ     -12.6103    YZZ     -33.8122
       ZZZ       9.3246
    Hexadecapole Moments (Debye-Ang^3)
      XXXX    -134.0780   XXXY      49.6609   XXYY     -51.8640
      XYYY     111.5871   YYYY    -420.7147   XXXZ      19.0510
      XXYZ       1.4753   XYYZ       1.7014   YYYZ       8.6038
      XXZZ     -55.1915   XYZZ     -33.2997   YYZZ     -94.4771
      XZZZ      20.8350   YZZZ      25.4148   ZZZZ     -18.2349
 -----------------------------------------------------------------
 JobOver = TRUE
Archival summary:
1\1\odysseus\SP\ProcedureUnspecified\6-31G*\24\ben\MonJun210:06:042014MonJun210:06:042014\0\\#,ProcedureUnspecified,6-31G*,\\0,1\O\H,1,0.990028\H,1,0.990225,2,104.554\H,2,2.63568,1,82.6876,3,152.764,0\O,4,0.989946,2,125.387,1,134.861,0\H,5,0.990002,4,104.477,2,-85.7308,0\\HF=-152.01962\\@

 Total job time:  73.07s(wall), 73.04s(cpu) 
 Mon Jun  2 10:06:04 2014

        *************************************************************
        *                                                           *
        *  Thank you very much for using Q-Chem.  Have a nice day.  *
        *                                                           *
        *************************************************************


*** MISSION COMPLETED -- STARFLEET OUT ***

